<?xml version="1.0"?>
<VTKFile type="PolyData" version="0.1" byte_order="LittleEndian" header_type="UInt32" compressor="vtkZLibDataCompressor">
  <PolyData>
    <Piece NumberOfPoints="152" NumberOfVerts="0" NumberOfLines="1" NumberOfStrips="0" NumberOfPolys="0">
      <PointData>
        <DataArray type="Float64" Name="MaximumInscribedSphereRadius" format="ascii" RangeMin="12.777995807778726" RangeMax="15.389000929367699">
          13.046534114133522 13.383599471718068 13.409640471919797 13.641032743844905 13.669344211475961 13.672353731993798
          13.748307692664193 13.770715809966674 13.785298913589093 13.79086390842624 13.852651137686651 13.858562664376528
          13.920700563441054 13.927136056804288 13.976531957245586 13.976651430646783 14.006400307544727 14.006422578493437
          14.0091841761335 14.009686091937155 14.021732071224914 14.021774019951685 14.026975662071166 14.03377032851592
          14.034048863257196 14.039105842787835 14.041199389588707 14.044159589710473 14.045278745120614 14.049446567409156
          14.052070688467015 14.059581494661343 14.069072617840094 14.06921427487251 14.076155469460863 14.076200203171618
          14.08174718330518 14.081866454954298 14.09168648739826 14.091691995081987 14.092374947864421 14.092938329352672
          14.127586290880087 14.142230454226862 14.142564198690591 14.149183463887885 14.149287934251545 14.175301054802642
          14.17539757222261 14.187365732298936 14.187412576866139 14.190293517749128 14.215047345295918 14.215060735450976
          14.218394884060425 14.222179567202668 14.222652618955085 14.251745301728638 14.251755483690694 14.254290792242585
          14.254795755087914 14.272325179575697 14.272384152849733 14.279696838830263 14.285279404585948 14.28572992973921
          14.30136958863101 14.32645128947646 14.326858154074674 14.335111529547437 14.335909272532959 14.340945705430496
          14.350141139977625 14.350146728362215 14.351538236125197 14.362704994959001 14.365862929025665 14.37195189238676
          14.377154776582657 14.388395609091148 14.392799274312768 14.393048403721615 14.397590224482913 14.402134611843529
          14.40656572575585 14.409024738235782 14.419804180959208 14.436955291433767 14.444713303177828 14.470374292010648
          14.470616547188726 14.500656189270297 14.507129335776389 14.533971773611231 14.537370680003502 14.544012626329671
          14.55822333642026 14.58725874015637 14.604493217967885 14.63528122979542 14.659976201038434 14.669703827319218
          14.672655391559077 14.684859213509577 14.688043600138165 14.704516405344592 14.718139888317818 14.73107913303221
          14.758303145978406 14.77400370523751 14.774706269985685 14.805067512377521 14.806609847463145 14.834662980041529
          14.835999327481467 14.836073489943434 14.85453994297322 14.87488125145574 14.945657606006968 14.945819195474565
          14.985066428554074 14.991081272272911 14.993234035632174 15.013214893570881 15.065422178549717 15.108663187846403
          15.11957000443165 15.155601172160413 15.156811357100699 15.182732426924302 15.207131224088368 15.209454119287685
          15.280449855371144 15.282644439034504 15.324424887363916 15.379197170555152 15.385046665825763 15.389000929367699
          15.252698826207935 15.228148006429851 15.107454239896615 15.021833188527472 14.84901470447246 14.369208315330035
          14.059700571867772 13.728480534801509 13.463946929911275 13.354052577347904 13.028389527234209 12.777995807778726
          13.046534114133522 12.777995807778726
        </DataArray>
      </PointData>
      <CellData>
      </CellData>
      <Points>
        <DataArray type="Float32" Name="Points" NumberOfComponents="3" format="ascii" RangeMin="1735.836171821643" RangeMax="1784.1147201260753">
          13.913418769836426 -198.37911987304688 1726.1483154296875 12.736528396606445 -198.32546997070312 1727.864990234375
          11.614852905273438 -198.2782440185547 1729.500732421875 10.570491790771484 -198.23989868164062 1731.022705078125
          9.61888599395752 -198.2119140625 1732.4078369140625 8.76818561553955 -198.19479370117188 1733.643310546875
          8.019621849060059 -198.1881561279297 1734.726318359375 7.368711471557617 -198.1907958984375 1735.662353515625
          6.806950569152832 -198.2010498046875 1736.4632568359375 6.323646545410156 -198.21685791015625 1737.14404296875
          5.907553672790527 -198.2363739013672 1737.721435546875 5.548103332519531 -198.25787353515625 1738.2110595703125
          5.236133575439453 -198.2799072265625 1738.626953125 4.964147567749023 -198.3013916015625 1738.981201171875
          4.726203918457031 -198.32159423828125 1739.2840576171875 4.517597198486328 -198.34011840820312 1739.54345703125
          4.334448337554932 -198.35678100585938 1739.7664794921875 4.173340320587158 -198.37155151367188 1739.9580078125
          4.031050682067871 -198.3845672607422 1740.1248779296875 3.9044132232666016 -198.39599609375 1740.271728515625
          3.7902987003326416 -198.40609741210938 1740.4031982421875 3.685680627822876 -198.4151611328125 1740.523681640625
          3.5877530574798584 -198.4232940673828 1740.6358642578125 3.4940576553344727 -198.43069458007812 1740.744140625
          3.4025933742523193 -198.43736267089844 1740.85107421875 3.311886787414551 -198.44358825683594 1740.958251953125
          3.2210123538970947 -198.4493865966797 1741.06640625 3.1295642852783203 -198.4547576904297 1741.176025390625
          3.037583827972412 -198.45970153808594 1741.286865234375 2.945451498031616 -198.4644775390625 1741.39892578125
          2.8537585735321045 -198.46910095214844 1741.511474609375 2.7631750106811523 -198.47357177734375 1741.6229248046875
          2.674326181411743 -198.47789001464844 1741.7332763671875 2.5876941680908203 -198.4820556640625 1741.8404541015625
          2.503553867340088 -198.48605346679688 1741.9442138671875 2.4219508171081543 -198.48989868164062 1742.044677734375
          2.3427186012268066 -198.49359130859375 1742.1417236328125 2.265531063079834 -198.49722290039062 1742.23681640625
          2.1899759769439697 -198.50100708007812 1742.330810546875 2.11564040184021 -198.50494384765625 1742.423583984375
          2.042178153991699 -198.509033203125 1742.51513671875 1.969368577003479 -198.51327514648438 1742.607421875
          1.8971409797668457 -198.51763916015625 1742.700927734375 1.8255703449249268 -198.52215576171875 1742.794189453125
          1.7548491954803467 -198.52682495117188 1742.88623046875 1.6852425336837769 -198.53164672851562 1742.97705078125
          1.6170368194580078 -198.53662109375 1743.066650390625 1.5504928827285767 -198.54156494140625 1743.1551513671875
          1.4858096837997437 -198.54635620117188 1743.2423095703125 1.4231014251708984 -198.55099487304688 1743.3260498046875
          1.362390160560608 -198.55548095703125 1743.408203125 1.303608775138855 -198.559814453125 1743.4891357421875
          1.246612310409546 -198.56402587890625 1743.56884765625 1.1911927461624146 -198.56790161132812 1743.6474609375
          1.1370927095413208 -198.57135009765625 1743.724853515625 1.0840195417404175 -198.57437133789062 1743.801025390625
          1.0316553115844727 -198.57696533203125 1743.8759765625 0.9796674847602844 -198.57913208007812 1743.950927734375
          0.9277191162109375 -198.5811309814453 1744.02685546875 0.8754808306694031 -198.58297729492188 1744.10400390625
          0.8226464986801147 -198.58465576171875 1744.182373046875 0.7689511775970459 -198.586181640625 1744.261962890625
          0.7141901850700378 -198.58755493164062 1744.3427734375 0.6582360863685608 -198.58877563476562 1744.4249267578125
          0.6010499000549316 -198.59005737304688 1744.509033203125 0.5426821112632751 -198.59149169921875 1744.5943603515625
          0.48326218128204346 -198.59307861328125 1744.680908203125 0.42297470569610596 -198.59481811523438 1744.768798828125
          0.3620246648788452 -198.59671020507812 1744.85791015625 0.30059537291526794 -198.5987548828125 1744.947998046875
          0.23880407214164734 -198.6009521484375 1745.037109375 0.1766606718301773 -198.60330200195312 1745.125
          0.11403365433216095 -198.60580444335938 1745.214111328125 0.05062644183635712 -198.60845947265625 1745.304443359375
          -0.014034071937203407 -198.61126708984375 1745.3958740234375 -0.08059587329626083 -198.61422729492188 1745.490478515625
          -0.1498660296201706 -198.61734008789062 1745.588623046875 -0.22277945280075073 -198.62060546875 1745.6925048828125
          -0.3003505766391754 -198.62399291992188 1745.80224609375 -0.38360732793807983 -198.62753295898438 1745.919921875
          -0.4735093414783478 -198.6312255859375 1746.0478515625 -0.5708544254302979 -198.63507080078125 1746.18603515625
          -0.6761844754219055 -198.63906860351562 1746.336181640625 -0.7897016406059265 -198.64321899414062 1746.4990234375
          -0.9112120866775513 -198.64752197265625 1746.6744384765625 -1.040107250213623 -198.65188598632812 1746.8607177734375
          -1.1753922700881958 -198.6563720703125 1747.0574951171875 -1.3157621622085571 -198.6610107421875 1747.262451171875
          -1.4597140550613403 -198.66580200195312 1747.473388671875 -1.6056815385818481 -198.67080688476562 1747.687744140625
          -1.7521677017211914 -198.67623901367188 1747.903564453125 -1.8978605270385742 -198.68209838867188 1748.12060546875
          -2.0417087078094482 -198.68853759765625 1748.33642578125 -2.182957172393799 -198.69570922851562 1748.551025390625
          -2.321138381958008 -198.70361328125 1748.7623291015625 -2.4560327529907227 -198.7122344970703 1748.97021484375
          -2.587613105773926 -198.72174072265625 1749.1746826171875 -2.7159862518310547 -198.7322540283203 1749.375732421875
          -2.841341257095337 -198.74365234375 1749.5733642578125 -2.963918924331665 -198.75576782226562 1749.767578125
          -3.0839903354644775 -198.76861572265625 1749.9583740234375 -3.2018470764160156 -198.78219604492188 1750.145751953125
          -3.3177921772003174 -198.7965087890625 1750.3299560546875 -3.432133197784424 -198.81124877929688 1750.512939453125
          -3.5451622009277344 -198.826416015625 1750.6947021484375 -3.6571383476257324 -198.842041015625 1750.875244140625
          -3.7682738304138184 -198.85809326171875 1751.054443359375 -3.8787238597869873 -198.8743896484375 1751.232421875
          -3.988593339920044 -198.89085388183594 1751.4091796875 -4.097952842712402 -198.907470703125 1751.584716796875
          -4.2068610191345215 -198.9242401123047 1751.759033203125 -4.315395832061768 -198.94122314453125 1751.93212890625
          -4.423674583435059 -198.95864868164062 1752.10595703125 -4.531862735748291 -198.97650146484375 1752.281005859375
          -4.640172958374023 -198.99478149414062 1752.4571533203125 -4.748847007751465 -199.01353454589844 1752.634521484375
          -4.858135223388672 -199.03273010253906 1752.8153076171875 -4.968267917633057 -199.05233764648438 1752.99951171875
          -5.079434871673584 -199.07211303710938 1753.18701171875 -5.191776752471924 -199.09185791015625 1753.378173828125
          -5.305384635925293 -199.11119079589844 1753.5751953125 -5.420312881469727 -199.12982177734375 1753.778076171875
          -5.536599159240723 -199.1474609375 1753.984375 -5.65430212020874 -199.16371154785156 1754.194091796875
          -5.773530006408691 -199.1781005859375 1754.4072265625 -5.8944783210754395 -199.19036865234375 1754.6240234375
          -6.017465114593506 -199.20046997070312 1754.84423828125 -6.142959117889404 -199.2081298828125 1755.06787109375
          -6.271606922149658 -199.21331787109375 1755.2930908203125 -6.404257774353027 -199.21629333496094 1755.5213623046875
          -6.541982650756836 -199.2170867919922 1755.75146484375 -6.686089515686035 -199.216064453125 1755.984619140625
          -6.838134765625 -199.2136993408203 1756.2210693359375 -6.9999189376831055 -199.2103729248047 1756.4632568359375
          -7.173460960388184 -199.2066650390625 1756.71484375 -7.360937595367432 -199.20309448242188 1756.981201171875
          -7.564579010009766 -199.20021057128906 1757.2711181640625 -7.786519527435303 -199.1981201171875 1757.59619140625
          -8.02861213684082 -199.19696044921875 1757.97119140625 -8.292227745056152 -199.196533203125 1758.4158935546875
          -8.578073501586914 -199.19647216796875 1758.9522705078125 -8.88606071472168 -199.196044921875 1759.6044921875
          -9.215253829956055 -199.194580078125 1760.399169921875 -9.563920974731445 -199.19100952148438 1761.35888671875
          -9.929691314697266 -199.18463134765625 1762.5020751953125 -10.309773445129395 -199.17477416992188 1763.8387451171875
          -10.701224327087402 -199.16116333007812 1765.3680419921875 -11.101192474365234 -199.14382934570312 1767.07568359375
          -11.507089614868164 -199.1231689453125 1768.93408203125 -11.916686058044434 -199.10003662109375 1770.902587890625
          15.118416786193848 -198.43609619140625 1724.3902587890625 -12.32807731628418 -199.0755615234375 1772.930419921875
          <InformationKey name="L2_NORM_RANGE" location="vtkDataArray" length="2">
            <Value index="0">
              1735.8361718
            </Value>
            <Value index="1">
              1784.1147201
            </Value>
          </InformationKey>
        </DataArray>
      </Points>
      <Verts>
        <DataArray type="Int64" Name="connectivity" format="ascii" RangeMin="1e+299" RangeMax="-1e+299">
        </DataArray>
        <DataArray type="Int64" Name="offsets" format="ascii" RangeMin="1e+299" RangeMax="-1e+299">
        </DataArray>
      </Verts>
      <Lines>
        <DataArray type="Int64" Name="connectivity" format="ascii" RangeMin="0" RangeMax="151">
          151 149 148 147 146 145
          144 143 142 141 140 139
          138 137 136 135 134 133
          132 131 130 129 128 127
          126 125 124 123 122 121
          120 119 118 117 116 115
          114 113 112 111 110 109
          108 107 106 105 104 103
          102 101 100 99 98 97
          96 95 94 93 92 91
          90 89 88 87 86 85
          84 83 82 81 80 79
          78 77 76 75 74 73
          72 71 70 69 68 67
          66 65 64 63 62 61
          60 59 58 57 56 55
          54 53 52 51 50 49
          48 47 46 45 44 43
          42 41 40 39 38 37
          36 35 34 33 32 31
          30 29 28 27 26 25
          24 23 22 21 20 19
          18 17 16 15 14 13
          12 11 10 9 8 7
          6 5 4 3 2 1
          0 150
        </DataArray>
        <DataArray type="Int64" Name="offsets" format="ascii" RangeMin="152" RangeMax="152">
          152
        </DataArray>
      </Lines>
      <Strips>
        <DataArray type="Int64" Name="connectivity" format="ascii" RangeMin="1e+299" RangeMax="-1e+299">
        </DataArray>
        <DataArray type="Int64" Name="offsets" format="ascii" RangeMin="1e+299" RangeMax="-1e+299">
        </DataArray>
      </Strips>
      <Polys>
        <DataArray type="Int64" Name="connectivity" format="ascii" RangeMin="1e+299" RangeMax="-1e+299">
        </DataArray>
        <DataArray type="Int64" Name="offsets" format="ascii" RangeMin="1e+299" RangeMax="-1e+299">
        </DataArray>
      </Polys>
    </Piece>
  </PolyData>
</VTKFile>
