<?xml version="1.0"?>
<VTKFile type="PolyData" version="0.1" byte_order="LittleEndian" header_type="UInt32" compressor="vtkZLibDataCompressor">
  <PolyData>
    <Piece NumberOfPoints="2815" NumberOfVerts="0" NumberOfLines="5" NumberOfStrips="0" NumberOfPolys="0">
      <PointData>
        <DataArray type="Float64" Name="MaximumInscribedSphereRadius" format="ascii" RangeMin="0.46537337872910445" RangeMax="15.389000929367699">
          0.6302283612003323 0.6485850620990201 0.654841087591661 0.6521767560148409 0.6597644966879235 0.6651164555218009
          0.654566741970603 0.6328301131031405 0.6326619466190196 0.6223197078455837 0.6305536459169889 0.6360170383979025
          0.6339754547229436 0.6218254217671697 0.6181295288056898 0.619079034161756 0.627729748694037 0.6277480470151426
          0.6300170388322431 0.6223436981996852 0.6026754660715289 0.6189956997312659 0.6182948024209972 0.609262918071693
          0.5860514332153841 0.6913620936423416 0.7082047245009001 0.7304742303555377 0.7680596597996437 0.7680559430147099
          0.7675950616829061 0.8226186148961122 0.8148878305669439 0.8169449243467131 0.8180716321474744 0.8117077965636441
          0.8065248600753222 0.784824283328688 0.8141834634207485 0.7935790521397869 0.8021189257523863 0.7880146935179009
          0.7886102146052513 0.8252347614773059 0.8357183416814803 0.8325589140203791 0.828009278358937 0.8065938628870724
          0.7960743348640313 0.7976865563321341 0.8249628519201662 0.8250281068479725 0.8276818072454291 0.8211711810046685
          0.8760983809772596 0.9490156872904829 0.9842594447321791 0.9858595348922636 1.0342622622348216 1.0347470893327262
          1.155469036710978 1.1861680999164421 1.3431502218038673 1.3610233855323681 1.3774784303952852 1.4288158142855045
          1.4316029345099865 1.5102933758288934 1.5166505786990356 1.5256309831192583 1.537296427949805 1.5373490333071527
          1.550447767286787 1.608584016999962 1.6144446782693538 1.6329356754946855 1.6589989997197263 1.6759645974440016
          1.670555623861439 1.683959219307597 1.6822699296554098 1.6689393315872338 1.6333949163699215 1.6147754646727677
          1.6156880390644075 1.622583466568994 1.6289239110673783 1.62926028284348 1.6235971393767583 1.6382211100735065
          1.6382220596499053 1.638458504173219 1.6476070304220394 1.6542178579242632 1.6573869766374743 1.663402480467572
          1.6619529418282262 1.6824617961008843 1.6736198088241567 1.6733099396301092 1.6731960757983286 1.6679224007439237
          1.6790224207286721 1.6797623125091576 1.6773161788075663 1.6500721602541235 1.6370294954728535 1.6095916239974952
          1.6079530066461192 1.5896344559270135 1.5896053517473123 1.5859964334643792 1.5590686216466538 1.5348616535940853
          1.5370532797304515 1.5309342239572714 1.5058791333945725 1.5050550558071885 1.4869497842006776 1.464921918431995
          1.4486332504355433 1.443594468051963 1.4628876673798807 1.462908661798182 1.4630261670621252 1.4922849777839684
          1.5100207309912563 1.5574572662115005 1.5894149670798488 1.6044159255427095 1.6983841558637605 1.7283520438776852
          1.7513264525440744 1.759077202525987 1.7655853317322894 1.7672292016569209 1.814244898349434 1.830370779433761
          1.8386933213372296 1.8430522144321393 1.860538474440787 1.8716326538608181 1.8755033063942779 1.8965251428918097
          1.9206735696212434 1.9162770703729786 1.9436207532473104 1.938988923507449 1.935419468183885 1.9215335761186607
          1.9202936530108106 1.9197818390061396 1.9163285083980193 1.9125073173901472 1.897746172585236 1.8926052398381434
          1.882164945793051 1.875971370501775 1.874692381471056 1.865019647916163 1.9765043090416965 2.0202097149141705
          2.0913645585237957 2.091549031692489 2.13748285069719 2.1377401449758113 2.153563743111026 2.1729911099937165
          2.1782153374036524 2.286860023444839 2.306235463947957 2.3518484090872507 2.3666186634125896 2.4224069269198134
          2.4580389739706248 2.4671367792292047 2.4774111568319883 2.478309398768102 2.483823422646764 2.4966099059823095
          2.4966206043023598 2.4868063592087015 2.4806881482238055 2.386453495017362 2.368971600844964 2.276929012281345
          2.230510831354737 2.1559751340247164 2.1292765163016742 2.127671518245113 2.1158500726233194 2.0782450171614064
          2.0712337455386383 2.068344685613081 2.0230028163313025 2.0263685028373364 2.0052173661337034 2.0446792448433824
          2.0918830534728845 2.1590774853215393 2.181595441005413 2.3064700563213183 2.3661679369534947 2.5635856987364387
          2.6390281142039336 2.916731506970809 2.919400952579354 3.2504122080389783 3.512884620030237 3.5147940972176883
          3.7515692684616657 4.305626032811032 5.117718303460274 5.3263315959530315 5.329386049239359 5.708138256743983
          6.295401865690532 6.6645574485712356 6.692467993190893 6.876101786435503 7.042757133764351 7.045439449522669
          7.378046603554211 7.822301481857464 7.950735432414305 8.358792284694292 9.099526074057492 9.219572394564581
          9.638389873903698 10.095826939996869 10.101819399922698 10.559284837592243 10.589958157654188 11.149290635299565
          11.30018239366898 11.906555867445162 12.264909183650403 12.317856617547385 12.610232743529057 12.6637615433555
          12.808850345200105 12.885686385332738 12.978542283752468 13.137167688491397 13.168448901447446 13.347958306424974
          13.828208225494274 13.907474528225718 14.240768682556364 14.419462965184582 14.613160392272691 14.644892944537917
          14.656399833438481 14.67964730112523 14.686756447469186 14.709370065975902 14.7172878043945 14.73335576469762
          14.785156327095134 14.801303037547402 14.808214756909223 14.819242483673053 14.835999327481467 14.836073489943434
          14.85453994297322 14.87488125145574 14.945657606006968 14.945819195474565 14.985066428554074 14.991081272272911
          14.993234035632174 15.013214893570881 15.065422178549717 15.108663187846403 15.11957000443165 15.155601172160413
          15.156811357100699 15.182732426924302 15.207131224088368 15.209454119287685 15.280449855371144 15.282644439034504
          15.324424887363916 15.379197170555152 15.385046665825763 15.389000929367699 15.252698826207935 15.228148006429851
          15.107454239896615 15.021833188527472 14.84901470447246 14.369208315330035 14.059700571867772 13.728480534801509
          13.463946929911275 13.354052577347904 13.028389527234209 12.777995807778726 0.46537337872910445 0.465399219680805
          0.47183361665423446 0.5321974975732885 0.5892908991777819 0.613928849587639 0.6198682739040885 0.6253092461147246
          0.686590134953191 0.7031225825670826 0.7490059188373795 0.749851559834553 0.7696735990962548 0.8050354078987298
          0.8089269717054726 0.8386212302945376 0.8386868077168255 0.8550155858664964 0.8602076924275437 0.8506718223211299
          0.8556277673094765 0.855550225154603 0.8765787136667434 0.8789227459612418 0.8705032231227863 0.8645255982090299
          0.8640135044863377 0.8640969206560704 0.8744405257029233 0.889512136711069 0.896305907305939 0.8870419616522619
          0.8851877859733002 0.9022742116975029 0.9143436654349091 0.9127063528570992 0.9141550562906232 0.9212120092171513
          0.9226150501067447 0.9182114442493509 0.9182022508514278 0.9159130947685842 0.9121569501095501 0.8864881834311096
          0.8869586069373167 0.8710971529337517 0.876151507076548 0.8691544963787794 0.8663139792339831 0.8561470478609505
          0.8716318155109711 0.9002125405726107 0.9460449887880905 0.9668976834350819 0.9799043404205761 1.0026393938556168
          1.0459690720193269 1.0459696307659667 1.0461087586793385 1.0425083034504405 1.0670104835482797 1.072052720467706
          1.0688262558524906 1.0781047156018169 1.0884813002006544 1.0918680026711933 1.0914158379037533 0.988336943558106
          1.0016131656955403 0.9945781772952808 0.9632900648962482 0.9832321729942451 0.9836855144685825 0.9596185576716239
          0.9735211889279003 1.0131236511731114 1.0184732425215874 1.0306000185128155 1.0273978776748236 1.0746809173769885
          1.0749527414302553 1.088891385399182 1.091194878974437 1.087374942165237 1.058239300327504 1.0464244654989496
          1.04422120246092 1.034466545651094 0.9863018254638402 0.9126857351789947 0.8467888871244595 0.8131311610963282
          0.7134511129270067 0.6499148782521639 0.6556726691695988 0.6577026825919072 0.7785702459198348 0.7889880134521745
          0.8732013576246284 0.8863603092019237 0.9997705581565602 1.1537536980916037 1.178143436231597 1.2146511153170902
          1.2680465343554188 1.388533454677209 1.4004093399038458 1.5162687063678166 1.5377067725908387 1.5696674912751538
          1.6002325857086461 1.6007721637848027 1.6037456986276362 1.5939756918934342 1.5850023062676095 1.5913646969490207
          1.5937718865854906 1.5922983302019837 1.5744371374342028 1.5744363143251017 1.5742313601588902 1.5738841265623822
          1.5452952271165628 1.5273454499497676 1.5241723139285732 1.5179177078054016 1.4926913710180056 1.4926905121489322
          1.4924766537496414 1.4706967738597145 1.471832735610804 1.442520941431453 1.4422733934065397 1.4356446074060807
          1.44863062017879 1.4399185911059234 1.4299194290385706 1.3906866567943281 1.3596619952655482 1.3519307533108325
          1.353028113858095 1.3528381168764503 1.3527231713179697 1.3568611994533275 1.3642872349619137 1.379470026147654
          1.3707913868017931 1.3708792597750121 1.3927596301065415 1.3994420863864316 1.3995820746563339 1.4344391538620134
          1.4325163846472904 1.4637546845256422 1.4975950202652888 1.5006774177132711 1.5071070218630198 1.5274646297205472
          1.5402290656614142 1.5402723019041842 1.5734033837854864 1.598189152223494 1.642098724429767 1.6431909235210882
          1.6759645974440016 1.670555623861439 1.683959219307597 1.6822699296554098 1.6689393315872338 1.6333949163699215
          1.6147754646727677 1.6156880390644075 1.622583466568994 1.6289239110673783 1.62926028284348 1.6235971393767583
          1.6382211100735065 1.6382220596499053 1.638458504173219 1.6476070304220394 1.6542178579242632 1.6573869766374743
          1.663402480467572 1.6619529418282262 1.6824617961008843 1.6736198088241567 1.6733099396301092 1.6731960757983286
          1.6679224007439237 1.6790224207286721 1.6797623125091576 1.6773161788075663 1.6500721602541235 1.6370294954728535
          1.6095916239974952 1.6079530066461192 1.5896344559270135 1.5896053517473123 1.5859964334643792 1.5590686216466538
          1.5348616535940853 1.5370532797304515 1.5309342239572714 1.5058791333945725 1.5050550558071885 1.4869497842006776
          1.464921918431995 1.4486332504355433 1.443594468051963 1.4628876673798807 1.462908661798182 1.4630261670621252
          1.4922849777839684 1.5100207309912563 1.5574572662115005 1.5894149670798488 1.6044159255427095 1.6983841558637605
          1.7283520438776852 1.7513264525440744 1.759077202525987 1.7655853317322894 1.7672292016569209 1.814244898349434
          1.830370779433761 1.8386933213372296 1.8430522144321393 1.860538474440787 1.8716326538608181 1.8755033063942779
          1.8965251428918097 1.9206735696212434 1.9162770703729786 1.9436207532473104 1.938988923507449 1.935419468183885
          1.9215335761186607 1.9202936530108106 1.9197818390061396 1.9163285083980193 1.9125073173901472 1.897746172585236
          1.8926052398381434 1.882164945793051 1.875971370501775 1.874692381471056 1.865019647916163 1.9765043090416965
          2.0202097149141705 2.0913645585237957 2.091549031692489 2.13748285069719 2.1377401449758113 2.153563743111026
          2.1729911099937165 2.1782153374036524 2.286860023444839 2.306235463947957 2.3518484090872507 2.3666186634125896
          2.4224069269198134 2.4580389739706248 2.4671367792292047 2.4774111568319883 2.478309398768102 2.483823422646764
          2.4966099059823095 2.4966206043023598 2.4868063592087015 2.4806881482238055 2.386453495017362 2.368971600844964
          2.276929012281345 2.230510831354737 2.1559751340247164 2.1292765163016742 2.127671518245113 2.1158500726233194
          2.0782450171614064 2.0712337455386383 2.068344685613081 2.0230028163313025 2.0263685028373364 2.0052173661337034
          2.0446792448433824 2.0918830534728845 2.1590774853215393 2.181595441005413 2.3064700563213183 2.3661679369534947
          2.5635856987364387 2.6390281142039336 2.916731506970809 2.919400952579354 3.2504122080389783 3.512884620030237
          3.5147940972176883 3.7515692684616657 4.305626032811032 5.117718303460274 5.3263315959530315 5.329386049239359
          5.708138256743983 6.295401865690532 6.6645574485712356 6.692467993190893 6.876101786435503 7.042757133764351
          7.045439449522669 7.378046603554211 7.822301481857464 7.950735432414305 8.358792284694292 9.099526074057492
          9.219572394564581 9.638389873903698 10.095826939996869 10.101819399922698 10.559284837592243 10.589958157654188
          11.149290635299565 11.30018239366898 11.906555867445162 12.264909183650403 12.317856617547385 12.610232743529057
          12.6637615433555 12.808850345200105 12.885686385332738 12.978542283752468 13.137167688491397 13.168448901447446
          13.347958306424974 13.828208225494274 13.907474528225718 14.240768682556364 14.419462965184582 14.613160392272691
          14.644892944537917 14.656399833438481 14.67964730112523 14.686756447469186 14.709370065975902 14.7172878043945
          14.73335576469762 14.785156327095134 14.801303037547402 14.808214756909223 14.819242483673053 14.835999327481467
          14.836073489943434 14.85453994297322 14.87488125145574 14.945657606006968 14.945819195474565 14.985066428554074
          14.991081272272911 14.993234035632174 15.013214893570881 15.065422178549717 15.108663187846403 15.11957000443165
          15.155601172160413 15.156811357100699 15.182732426924302 15.207131224088368 15.209454119287685 15.280449855371144
          15.282644439034504 15.324424887363916 15.379197170555152 15.385046665825763 15.389000929367699 15.252698826207935
          15.228148006429851 15.107454239896615 15.021833188527472 14.84901470447246 14.369208315330035 14.059700571867772
          13.728480534801509 13.463946929911275 13.354052577347904 13.028389527234209 12.777995807778726 0.6900214503322725
          0.6905282055552049 0.8039277747340019 0.8131202231006455 0.8864548352574754 0.9193029648394744 0.9145118601855168
          0.9117513796170031 0.8621502613813599 0.8615832049141402 0.7796895364511285 0.7640929847451086 0.7435060953843061
          0.7159494863186056 0.6828309695214995 0.6703766796092386 0.6684300210490829 0.666923630492366 0.629022730600158
          0.6928696825032049 0.7045620355354127 0.7041390969296881 0.6814248702567518 0.6763566072695694 0.6899775313728294
          0.7024057271328139 0.6905995422188165 0.6778587658850997 0.6517105109435658 0.7244546245981588 0.7239075666691497
          0.7181323272363777 0.7439508246159363 0.744353454345886 0.71821523031618 0.7182081583297697 0.7176258981153257
          0.7334712553011123 0.756768571518258 0.7543698897191671 0.7478298250286675 0.7629912114898193 0.8030950654836865
          0.7495726638186931 0.7687831074280449 0.7687229470940917 0.7662412352256606 0.7171376683031722 0.7473288264025787
          0.7502408171772021 0.7504773710803897 0.7502990183012529 0.7048934607567858 0.6861754799767751 0.6590367308378455
          0.6810871630455845 0.6806973992839327 0.6201410319082471 0.6762069078558295 0.6771057187613622 0.6436022050191689
          0.6436225207469219 0.6446179914068233 0.6404578866190237 0.6303624384054222 0.6519070580350552 0.6703788946853593
          0.6859099521438172 0.7074523328716357 0.7136823105096252 0.7867975659511874 0.8109321714920882 0.8802205904431739
          0.8857447847920876 0.913956281717784 0.922284153028768 0.9223043603865773 0.9021924655020194 0.881064311858926
          0.8504326402723792 0.8482052581065729 0.8523054947258121 0.78672618431431 0.7793980050973035 0.710597728114267
          0.6805735276290923 0.6860410734116741 0.7091013891967997 0.7605910286010866 0.7840619493054735 0.8025338466542331
          0.8056121669884323 0.811804251846769 0.8019354929347251 0.7919032637557644 0.7789026028415086 0.8073289066510873
          0.8351545797424644 0.8682494563308946 0.889693029232023 0.8905555388818865 0.8882164191033592 0.8413120546647674
          0.815013217447615 0.8147213051278953 0.7534659346934343 0.7524796160301427 0.7207595428425263 0.7593603400505469
          0.768970603165039 0.7781728837114062 0.7831498337603584 0.7831375707853451 0.7800840900070416 0.7976810590197756
          0.7963671928684452 0.7944114291228569 0.8074689520777043 0.8618121613432971 0.9161990196059911 0.9188640323602075
          0.9198035489919528 0.9345744575064646 0.9344221716422997 0.8584244439768681 0.8264727691743361 0.7910571947743639
          0.7816846327732251 0.6599242013921282 0.6161980588356251 0.6313617403656546 0.6304230996879405 0.6815187593621357
          0.7263271527269185 0.7449563980915319 0.7775615611491005 0.7788016623088834 0.789412588911805 0.8123735035061527
          0.8593877613839919 0.8634231007386926 0.887398968262062 0.8863197554293387 0.856899850551425 0.8262350503670259
          0.8237902561027098 0.8180964668443178 0.8205617372759203 0.8208182489433812 0.82072400174522 0.8090373491732236
          0.8088507673627529 0.7623918965555289 0.7768463583052668 0.7543950280196019 0.7542958755992918 0.7494374070040949
          0.7497111808054178 0.7722518904476601 0.7930653079198771 0.8436384908106462 0.8436613858106939 0.8493622408225872
          0.8499540799060556 0.8866385330545874 0.9075365158505749 0.9533850210648779 0.9570130878266194 0.9799202418546294
          1.00026402060683 1.0084959750452784 1.018262785076888 0.994521397194379 0.9878667527863526 1.028995576722979
          1.0303988721662605 1.0097071949829461 1.0093716738695953 0.9861592732574397 0.9278861067070644 0.92774661051687
          0.9137640202493804 0.9151285240518305 0.9222722349327802 0.905019875977024 0.9080459102315953 0.9532137595788973
          0.9488366244587244 0.9536526550332415 0.9634361520626953 0.9771625169615237 0.9786529407672907 0.9925502679880247
          1.0011378171874707 1.0321107735826591 1.0291648258442578 1.0284935999997034 1.015305327611566 0.9544677905248946
          0.9023162117908736 0.8181097851571316 0.7576537862604613 0.7431034182246476 0.6865530065648058 0.6441558841869901
          0.6820500570734286 0.7072347388355842 0.7072332491215239 0.7068623103204964 0.7432528958286162 0.7295076294434382
          0.7488023012176919 0.8084464058014919 0.8268685853589154 0.8441700414654727 0.8836015450522459 0.8841129024957198
          0.8935363886241041 0.952896057997808 0.9566095819188755 0.9620027251703079 0.9746422983228813 0.9699197910517662
          0.9700702618752549 0.9887286439878601 1.0021728952624307 1.020226194718862 1.0123715095892252 0.9793291577503526
          0.9449719024080178 0.8864110528294116 0.8703800204243978 0.8807883633334568 0.8764271405042772 0.7947156109149535
          0.7948826370468376 0.797141420377454 0.7801382484312455 0.7903079600207161 0.7936513059228867 0.8054337140887619
          0.811319453651071 0.7765186295013667 0.7909742529497025 0.7961559746710547 0.7906469874256632 0.778464272184504
          0.7773840138039918 0.758756375701532 0.7500170577839465 0.7088121066818083 0.7015292898225559 0.6804246522350128
          0.6802860777048906 0.6631028359697281 0.6576534893423484 0.673492033514299 0.6753089652384161 0.7010256404534455
          0.7565455413006597 0.7576927638992874 0.7969936268465253 0.8203997763447997 0.820021848088819 0.9068166177516899
          0.91029981578384 0.9128998635251531 0.918582010982409 0.9186913669512988 0.9276950083898957 0.938946086584393
          0.956978420027791 0.9660213034423537 0.9718929028911811 0.9686652988404201 0.9630254997439105 0.9500639044244974
          0.9140958234926091 0.9140742608278363 0.9087051572994215 0.8494609117824354 0.8131317575151848 0.793776596199175
          0.7499316174973344 0.7618129223650161 0.7751024538185864 0.7779612119333648 0.7820714018640346 0.7879102799594682
          0.7905338393587397 0.8350161085121495 0.8349082417405111 0.8760164125408966 0.920289845319323 0.9783132213452483
          1.0437904056878617 1.0483391033257847 1.048555463763233 1.0753841580068293 1.1063237705642524 1.1582177617026659
          1.1620005161753677 1.2031343034266537 1.2141669178017656 1.2080385787956198 1.2210811145660512 1.2333354663690603
          1.233414413618237 1.2411946027442695 1.2458202220346764 1.245837223906144 1.2747449994423605 1.2781983598239777
          1.2789263366601535 1.2712729680672332 1.2593285909526768 1.2576403220784989 1.262908829018023 1.2586952851640185
          1.2128514740970753 1.2056239581217274 1.1959933182813953 1.2005508050986373 1.162596323915671 1.166197794361009
          1.1678166338278777 1.1181382493024328 1.1181273360413038 1.1154099340201789 1.124704422651709 1.116295447006483
          1.119978787331891 1.122332387420184 1.1274518132328613 1.1279178629439712 1.1642144652377224 1.1642814980333265
          1.1809726641387726 1.1846741027539038 1.1923650336147504 1.1927493327670609 1.1847986301559617 1.165170228557427
          1.1618051368174394 1.1476098756943554 1.0621719688249216 1.0620196381791436 1.0431306381026635 0.970206757085123
          0.9353717672192505 0.9593253281181169 0.9581433927463033 0.9869486989755442 1.0249625292609155 1.0307965570074127
          1.0420998648402153 1.0730266139742546 1.074307348598256 1.0770396847393136 1.090828101362511 1.1143680431773455
          1.1189704766402169 1.1257055410984038 1.1176589890058595 1.1187669197162613 1.1572279429487813 1.1573109183014374
          1.1675998620308048 1.1723554289831233 1.1744851735271373 1.1781449605366945 1.168025077767296 1.1995232338244604
          1.2005002689285003 1.206570922644 1.2118861829429894 1.2189201059679242 1.2352675690043324 1.2396537446728244
          1.2398052984606625 1.253851614250179 1.2680705586054395 1.2682759223969022 1.2588329451735771 1.2536435878546508
          1.2530243076594492 1.2494263478664478 1.2522150090975415 1.247920901501808 1.2285291260146618 1.2005434145790588
          1.1964798760077882 1.1856664924638165 1.1879329894403854 1.187783128468769 1.1844172463665004 1.1800454158084355
          1.1698004182376711 1.1686394849827855 1.1795378536040615 1.1870280410390166 1.1982478668373693 1.1979805982643499
          1.1759754857524165 1.2252970580339138 1.2255664088606695 1.2267218416562953 1.2266283450403137 1.215034764658608
          1.2448914511620124 1.2448930547060326 1.2450918941645333 1.2447027090212792 1.246805784900682 1.2493941899584229
          1.2412120930869952 1.2609628451761945 1.2627069731887686 1.2630067761128994 1.2778605123571873 1.2806055658707347
          1.2814003985856555 1.2769910593477412 1.2928154755463854 1.2920522937729408 1.2903695873048888 1.286350458760089
          1.2859329188556208 1.2747021249180706 1.2657672881450415 1.271177155719541 1.2714684275281793 1.2719297574026758
          1.3038562016286175 1.3098457139001076 1.3132846645143106 1.313505413267066 1.3128327321006479 1.3239177357308411
          1.3585193755273637 1.3765909598345518 1.3874997229015225 1.386571297457316 1.3720037652968806 1.393795589040689
          1.394034466987677 1.3787658599850285 1.3796166903047737 1.3897466961789555 1.3840520401232062 1.349956388019523
          1.3520633676330591 1.3496850438091053 1.350147367196476 1.328700790424235 1.337164381778546 1.3372808645501744
          1.3482866169497785 1.3624402159768878 1.374652653552338 1.3768138896280495 1.373993863720511 1.3723743735637788
          1.3691625817411814 1.3478155550809432 1.3541233018578844 1.3415648915263048 1.327804441362511 1.2893716156069222
          1.2798446873223608 1.2646106744632213 1.2613140178242794 1.2613003799465334 1.2579045483877858 1.184741655720347
          1.14987133194216 1.1446891913473736 1.1329586007344137 1.0848577746082921 1.0989687000374522 1.1298445602487808
          1.1438077695857414 1.1523344597246232 1.165629680804204 1.159037224349262 1.2129364549513466 1.2080996860989766
          1.2007761507296777 1.2007164133368782 1.195450363550903 1.19549936902607 1.2077017323426489 1.2133907620096553
          1.200488591735124 1.1540640847549868 1.1717234826291723 1.1631045605166903 1.1651935361101615 1.1861872121792187
          1.2002892301608103 1.2014713488957762 1.1984496701730294 1.1925520022132718 1.1922842306760226 1.1923447804111886
          1.207421664467527 1.2073918514999904 1.2061794574868319 1.1998145061745071 1.2301255349490534 1.2656020027334567
          1.2691891954285346 1.2700528008435488 1.2640068250073921 1.2377379564798547 1.236470904012822 1.2082035011893075
          1.1984372216841324 1.1432749238011564 1.0703828258072225 1.0606380892340765 1.0134724722022819 1.0134632499178289
          1.01116690108903 1.0111406344824219 1.0095252381760185 1.0804257099312378 1.123140117694939 1.1726646687744948
          1.2625294907611169 1.2651541726549906 1.3652685655843175 1.3732668674657111 1.3805646159469658 1.3953294573647406
          1.4271778280279581 1.4493082541799809 1.5243088289097295 1.5438832465423658 1.5591024854537165 1.6003417446947952
          1.600459358097351 1.6000263075716217 1.6009284045528878 1.6038566043354159 1.5940283582128707 1.5851879548575785
          1.5913734901789944 1.593724923845253 1.5919083478271414 1.5744371374342028 1.5744363143251017 1.5742313601588902
          1.5738841265623822 1.5452952271165628 1.5273454499497676 1.5241723139285732 1.5179177078054016 1.4926913710180056
          1.4926905121489322 1.4924766537496414 1.4706967738597145 1.471832735610804 1.442520941431453 1.4422733934065397
          1.4356446074060807 1.44863062017879 1.4399185911059234 1.4299194290385706 1.3906866567943281 1.3596619952655482
          1.3519307533108325 1.353028113858095 1.3528381168764503 1.3527231713179697 1.3568611994533275 1.3642872349619137
          1.379470026147654 1.3707913868017931 1.3708792597750121 1.3927596301065415 1.3994420863864316 1.3995820746563339
          1.4344391538620134 1.4325163846472904 1.4637546845256422 1.4975950202652888 1.5006774177132711 1.5071070218630198
          1.5274646297205472 1.5402290656614142 1.5402723019041842 1.5734033837854864 1.598189152223494 1.642098724429767
          1.6431909235210882 1.6759645974440016 1.670555623861439 1.683959219307597 1.6822699296554098 1.6689393315872338
          1.6333949163699215 1.6147754646727677 1.6156880390644075 1.622583466568994 1.6289239110673783 1.62926028284348
          1.6235971393767583 1.6382211100735065 1.6382220596499053 1.638458504173219 1.6476070304220394 1.6542178579242632
          1.6573869766374743 1.663402480467572 1.6619529418282262 1.6824617961008843 1.6736198088241567 1.6733099396301092
          1.6731960757983286 1.6679224007439237 1.6790224207286721 1.6797623125091576 1.6773161788075663 1.6500721602541235
          1.6370294954728535 1.6095916239974952 1.6079530066461192 1.5896344559270135 1.5896053517473123 1.5859964334643792
          1.5590686216466538 1.5348616535940853 1.5370532797304515 1.5309342239572714 1.5058791333945725 1.5050550558071885
          1.4869497842006776 1.464921918431995 1.4486332504355433 1.443594468051963 1.4628876673798807 1.462908661798182
          1.4630261670621252 1.4922849777839684 1.5100207309912563 1.5574572662115005 1.5894149670798488 1.6044159255427095
          1.6983841558637605 1.7283520438776852 1.7513264525440744 1.759077202525987 1.7655853317322894 1.7672292016569209
          1.814244898349434 1.830370779433761 1.8386933213372296 1.8430522144321393 1.860538474440787 1.8716326538608181
          1.8755033063942779 1.8965251428918097 1.9206735696212434 1.9162770703729786 1.9436207532473104 1.938988923507449
          1.935419468183885 1.9215335761186607 1.9202936530108106 1.9197818390061396 1.9163285083980193 1.9125073173901472
          1.897746172585236 1.8926052398381434 1.882164945793051 1.875971370501775 1.874692381471056 1.865019647916163
          1.9765043090416965 2.0202097149141705 2.0913645585237957 2.091549031692489 2.13748285069719 2.1377401449758113
          2.153563743111026 2.1729911099937165 2.1782153374036524 2.286860023444839 2.306235463947957 2.3518484090872507
          2.3666186634125896 2.4224069269198134 2.4580389739706248 2.4671367792292047 2.4774111568319883 2.478309398768102
          2.483823422646764 2.4966099059823095 2.4966206043023598 2.4868063592087015 2.4806881482238055 2.386453495017362
          2.368971600844964 2.276929012281345 2.230510831354737 2.1559751340247164 2.1292765163016742 2.127671518245113
          2.1158500726233194 2.0782450171614064 2.0712337455386383 2.068344685613081 2.0230028163313025 2.0263685028373364
          2.0052173661337034 2.0446792448433824 2.0918830534728845 2.1590774853215393 2.181595441005413 2.3064700563213183
          2.3661679369534947 2.5635856987364387 2.6390281142039336 2.916731506970809 2.919400952579354 3.2504122080389783
          3.512884620030237 3.5147940972176883 3.7515692684616657 4.305626032811032 5.117718303460274 5.3263315959530315
          5.329386049239359 5.708138256743983 6.295401865690532 6.6645574485712356 6.692467993190893 6.876101786435503
          7.042757133764351 7.045439449522669 7.378046603554211 7.822301481857464 7.950735432414305 8.358792284694292
          9.099526074057492 9.219572394564581 9.638389873903698 10.095826939996869 10.101819399922698 10.559284837592243
          10.589958157654188 11.149290635299565 11.30018239366898 11.906555867445162 12.264909183650403 12.317856617547385
          12.610232743529057 12.6637615433555 12.808850345200105 12.885686385332738 12.978542283752468 13.137167688491397