<?xml version="1.0"?>
<VTKFile type="PolyData" version="0.1" byte_order="LittleEndian" header_type="UInt32" compressor="vtkZLibDataCompressor">
  <PolyData>
    <Piece NumberOfPoints="2652" NumberOfVerts="0" NumberOfLines="4" NumberOfStrips="0" NumberOfPolys="0">
      <PointData>
        <DataArray type="Float64" Name="MaximumInscribedSphereRadius" format="ascii" RangeMin="0.797854039909088" RangeMax="15.389000929367699">
          0.8189737115007772 0.8479573704069443 0.9235781673929095 0.948713470249007 0.9963422724497967 1.0050638824603306
          1.0217040153434316 1.0237517089881352 1.0339057499805344 1.0215463750848053 1.0255441747835579 1.0310830419600672
          1.0397384604178916 1.0337839085170404 1.0214232232954812 1.0214320107830686 1.0225216592438824 1.0041465198685384
          0.9919363155772065 0.9835870737469572 0.97866596858591 0.9752520310094767 0.9763291231898727 0.9785934637597599
          0.978709136349747 0.9882328462586882 0.990708255356482 1.052547874307378 1.0731848186540431 1.0844165267107773
          1.111078820075889 1.1280148060987805 1.1464456266105365 1.1397094195888113 1.129966789972583 1.1239552445519452
          1.1127711585481992 1.1063488540222817 1.105558070080206 1.091353555149462 1.072256822566976 1.0889723781788083
          1.105304461851498 1.1240063808625453 1.1240236071444736 1.1283129513446286 1.1328197552011343 1.132910024781535
          1.1348713365738738 1.1337502032912936 1.112978522976562 1.1170132990019968 1.1427284310518315 1.1491840277514718
          1.1728377286714116 1.1744915400268554 1.1764285851735785 1.200774908705473 1.2008014596454228 1.2074126436929136
          1.196227609602238 1.1921804209043343 1.1643478643340806 1.163726387561917 1.1569294187396224 1.1685166703667829
          1.1690368367553376 1.1451334037850005 1.1430232070205988 1.0972631882064023 1.097882097616526 1.1047782535693462
          1.126210057785398 1.1682073838249833 1.1733234518073838 1.184175742458989 1.1903573040307067 1.1743064169195545
          1.1724671194135825 1.1798303945452273 1.1734912498322427 1.1627907451237212 1.1631806459968066 1.1045139814031604
          1.0979696653330735 1.1114681252356837 1.0957979291981825 1.1803882693661862 1.1804476594384912 1.1952357874423922
          1.221297389694628 1.22204408790236 1.2479651828279184 1.255889307720517 1.242040786365311 1.22766050557097
          1.2254173624384266 1.2225216069082265 1.2210761145831972 1.211691460542829 1.2049712287990042 1.2077729505336325
          1.2101172417641601 1.19974467255523 1.1875588088467435 1.1810670267642416 1.1860517005455178 1.2060913449113981
          1.2829345105446217 1.341331017309385 1.341878688551492 1.3869702874849612 1.4177906135533473 1.4488945166364753
          1.502673297838362 1.6102108320569668 1.6163830772406818 1.645494774409076 1.7473919846365178 1.8364544702695906
          1.9086473074171555 1.9751863533026293 2.0172536956505223 2.053384844929932 2.105085006797591 2.213835864957684
          2.223807789270182 2.253580634433098 2.256548912027258 2.2783622566836437 2.2924665021605817 2.327028722170112
          2.3273910593535785 2.339969335865356 2.360210727337351 2.363911139894397 2.361704562503029 2.3824429812134067
          2.383323358809558 2.371644613837231 2.3850630422772996 2.382522449016955 2.3734358956150277 2.368681743337815
          2.3650237896542077 2.3584985295271603 2.3379834803710717 2.3333518287710056 2.329262947156598 2.305670925488201
          2.300266910896193 2.306649806154289 2.3066005771792186 2.304320278153994 2.2928251517836964 2.292565940271508
          2.2936072343866587 2.2938553756021545 2.2959554828341306 2.304389369494737 2.309107301656692 2.3193802256525182
          2.3207410180815464 2.320120948679021 2.32295548534743 2.3099068247241568 2.305153639188166 2.2932601809417754
          2.2913220767244464 2.2835211949757053 2.2717829960622877 2.25701298898087 2.2574299760084178 2.257384134398838
          2.2483583579414135 2.247075475388116 2.2469536540869552 2.248895145763083 2.2512135125084543 2.2501236469462524
          2.2537290260540463 2.2538446023761463 2.255039899692822 2.257489772901411 2.2578506453681797 2.2852718712497815
          2.285105140452265 2.279815206999478 2.239329788142359 2.2232007382215535 2.220051731481898 2.170145751624134
          2.165466018490924 2.1579064029481416 2.1566426805421988 2.141025611753299 2.122657730272396 2.1144293512026877
          2.0929978454090374 2.0732772661658365 2.027839657432721 2.0275715972112476 2.0256227850338373 2.0148443653507613
          2.0072560286273 2.0053671476892045 1.9888149405698456 1.986946299022096 2.007872893750899 2.011364222856481
          2.0113639933606624 2.011345098204907 2.014193096804592 2.0141879051390434 2.0128951804173854 2.025724893980969
          2.0257670160962555 2.0263443368528278 2.0063447535704677 1.9944704485192228 1.9462623946242148 1.943913453926016
          1.9188556027156962 1.9188029898668846 1.9134768540914884 1.8717448587300871 1.868556114753415 1.869121684399002
          1.859299118944879 1.8593720704349535 1.8617440219533696 1.8622868762126485 1.8695227820205078 1.871197503295889
          1.87284168090063 1.8735033001928931 1.869614896245322 1.8751229318604237 1.8798312684641587 1.8875004766115147
          1.8963743433454159 1.9184607987208175 1.9188755718311654 1.9391994542382127 1.9330987342897177 1.9281421135693502
          1.9106666080384809 1.9123153100111479 1.9174945581974836 1.866616728130458 1.859731892092415 1.8662321228835963
          1.8676714638578327 1.8717824069679483 1.870166157166164 1.8448476464250279 1.8200125504293552 1.8028014851018401
          1.7938516766043757 1.801456171398502 1.8066738013258616 1.81130291969051 1.8115682317076127 1.8201729740770816
          1.8263272646091673 1.8276382307117174 1.8202663916868946 1.8505429536832467 1.8505766357977749 1.8484822592589802
          1.868820826823868 1.8590511342869034 1.859032626596619 1.8544242117158078 1.8185358018869229 1.8232546135944856
          1.834301818379943 1.837125884193334 1.8372973744222896 1.835741853913817 1.8293217580279275 1.8058830022660481
          1.8031024864552643 1.8024817238265627 1.8098513253019743 1.8285293470011765 1.828484758040217 1.8191985488896705
          1.808373094125558 1.8096936403927952 1.7927929345014644 1.7973441748065202 1.8130643047417447 1.8141646107859848
          1.810768221594193 1.814214580580579 1.813859179167186 1.8197986362509886 1.8266153293093472 1.827560129338182
          1.8340662023897207 1.8355965088733208 1.8547256528719969 1.8547555671769953 1.8622042291216014 1.8842908485091907
          1.9023402361728583 1.9113042153562558 1.9231879340920215 1.928246906581104 1.9316963165074934 1.953515249564422
          1.9536017080361692 1.9578381731517882 1.965206484051642 1.9774619727356568 1.9924857459436278 1.9959119909358904
          2.04721735984994 2.047864040936367 2.041675539529206 2.0552210600151724 2.047607615615357 2.040210450633921
          2.03438283712747 2.043115104663392 2.0343693756040553 2.0175099051959067 2.029852618809642 2.0278777105142702
          2.0109121539002603 1.997451894967074 1.983259329583965 1.946388605783002 1.9413748330762772 1.9324548241597694
          1.8984606048320516 1.8922187240410955 1.8841330158219853 1.8921619601372024 1.8916880118739328 1.8959612152501042
          1.8934470320076466 1.8853520320527826 1.870051539004933 1.8459623161271093 1.8562610592514348 1.8588383321902728
          1.8605912867246137 1.872222290578905 1.8592681889468303 1.8486291648949875 1.8040469719064094 1.7836283416927552
          1.7756010906485407 1.7296638522437395 1.6967517118800035 1.69504769732174 1.6119037401359986 1.610131595707334
          1.538998684076137 1.516039391845611 1.504114919068027 1.4535446202141429 1.4538521348785138 1.4514667773022947
          1.453219126923975 1.4684583012581405 1.4684705892326841 1.442966498555073 1.4377966382936531 1.4381601454607047
          1.436595611441926 1.4175372761234155 1.4060458970295109 1.389402249018516 1.3737380655596974 1.3412094199750184
          1.3350376147404872 1.328210290709466 1.3215865652079208 1.3211098829031804 1.3140010943541642 1.3087431478745795
          1.3158987572632888 1.3112765772807973 1.329732169231726 1.3408412476433156 1.3512993528788253 1.3512042886012838
          1.3172358492758078 1.3140857515518611 1.2389211272030978 1.2381732831435819 1.1738203741840663 1.173036872588698
          1.159730214466693 1.1616447878387512 1.148411043061196 1.1446700710290627 1.1541795656851486 1.16768055908001
          1.1659547044630634 1.1504636547783453 1.1436182443959286 1.118296762475853 1.1227155735079102 1.141609603035645
          1.386327515198903 1.7057761947737657 1.772035409189735 1.9474277138063985 1.9738858571161741 1.9870790695525395
          2.1849912879358047 2.282833317575087 2.691112888953815 2.88925550161903 3.059300402394223 3.1738704366393855
          3.371896330809077 3.753535391025585 4.562160751602762 4.564161592309102 5.0623709281878595 5.064151571075869
          5.507531650190406 6.682514043862765 6.894713744996334 7.130426566349696 7.415710800896871 8.11761169867858
          8.932051657223376 9.200179527753146 10.258569508197478 10.992025832576902 12.6478228521446 12.885329136206877
          13.214892712687881 13.3632330589375 13.464463575845564 13.754600762358349 13.94192709121997 14.301871947087756
          14.36106965703916 14.384746525653387 14.4515465516632 14.571686288195071 14.613998631302778 14.622873571886496
          14.62437917016818 14.630262905337357 14.641934842755141 14.65616251140073 14.656268624508478 14.669426649869102
          14.687651182553026 14.704516405344592 14.718139888317818 14.73107913303221 14.758303145978406 14.77400370523751
          14.774706269985685 14.805067512377521 14.806609847463145 14.834662980041529 14.835999327481467 14.836073489943434
          14.85453994297322 14.87488125145574 14.945657606006968 14.945819195474565 14.985066428554074 14.991081272272911
          14.993234035632174 15.013214893570881 15.065422178549717 15.108663187846403 15.11957000443165 15.155601172160413
          15.156811357100699 15.182732426924302 15.207131224088368 15.209454119287685 15.280449855371144 15.282644439034504
          15.324424887363916 15.379197170555152 15.385046665825763 15.389000929367699 15.252698826207935 15.228148006429851
          15.107454239896615 15.021833188527472 14.84901470447246 14.369208315330035 14.059700571867772 13.728480534801509
          13.463946929911275 13.354052577347904 13.028389527234209 12.777995807778726 0.797854039909088 0.8140178480026786
          0.8486712874391877 0.8510699352050166 0.8749369626417425 0.890473954363155 0.9338981770848499 0.9495620564825753
          0.9574074142124551 0.9537007168446262 0.9670694709546989 0.9790247965892217 0.9805541858055021 0.9963507988273848
          0.9963389447197825 0.9933872719268164 0.9716367746275504 0.9703363817497733 0.940918384187815 0.9460640580344125
          0.918205419397751 0.9054000805462602 0.8713156191582185 0.8829111921874041 0.8788397241154337 0.8961277387219804
          0.9070389219358134 0.9272253209595989 0.9378163604737972 0.9047015992901645 0.9281084796798962 0.929661006521117
          0.9307214972839014 0.9499041378719576 0.9503170999795293 0.9556311434661972 0.9502019874528426 0.9290525352279853
          0.9383820419516974 0.9093171851200256 0.8920994334463117 0.8783589993192723 0.8927761610126913 0.9139305478822799
          0.920143618245522 0.9227713799313066 0.943293964738941 0.9824599045088636 1.0171577939740268 1.0172315546560082
          1.0217678365978644 1.0217093160514885 1.0014165079321913 1.00792056933975 0.9666570700619719 0.9818521147516566
          0.9671556425046861 0.9364336600056482 0.9367246628671448 0.9343031889259653 0.9401123960203258 0.9606987543650339
          0.9574883439873081 0.9240958029882679 0.9389989770707743 0.9674427526596427 0.9758359974434039 0.9779599510209017
          0.9913746536638721 0.9977360529624791 1.0027602656174293 1.0135268223032718 1.0137010758367115 1.0353085139832596
          1.0480783575363575 1.0843636640521006 1.0843636844894886 1.0843687733991207 1.1001079732920929 1.0992288701770603
          1.1487192238758972 1.148730139200673 1.1514480550698338 1.1795691136078035 1.1655941516946238 1.1639675562166067
          1.1693011394498112 1.1781640064632697 1.188469831748733 1.1934912185889726 1.2050965101415874 1.2062554132142194
          1.2096994116231883 1.21173171751055 1.230448414463914 1.2311806663770386 1.2355478954102888 1.2362556494829624
          1.2384752095609488 1.2390490973950372 1.232575342385604 1.2317738264476688 1.2317138326259918 1.2167753710284426
          1.2567718593220394 1.2569699110546606 1.2749058253973324 1.2833648512714655 1.287871399070005 1.2876804074865482
          1.2677283687674525 1.2649910935603959 1.266020116127662 1.2801237783731332 1.2805875720573832 1.2810953730417043
          1.2826365596077651 1.2886448709276201 1.2774392673766422 1.2656964264854047 1.274756804897912 1.277062135901249
          1.2424036165764487 1.2323891597084586 1.2404241927062103 1.248894276200068 1.248053783709525 1.2508874629970164
          1.2498202459316783 1.276135679446231 1.2853953929656863 1.2878708256422031 1.2940487749910912 1.2893183615834112
          1.290426656029438 1.3201122535429521 1.2878756627808188 1.2916635520250546 1.2917043940282633 1.3018740528272588
          1.3003675733452789 1.3003642591403357 1.2995390221094947 1.2531762992165705 1.2595606378887338 1.230494594706017
          1.2116481311248342 1.2051060633791781 1.2051957764668362 1.2275343352936572 1.2319765386045733 1.232985420546176
          1.231727583999046 1.2423280639774996 1.24531470092032 1.2398090699954547 1.2586276015845146 1.2741793478559904
          1.278106943305232 1.2713682602245566 1.3143444303155756 1.3217260723674547 1.4442123872051404 1.484486428225051
          1.4902638487590372 1.588964747427591 1.602980582007666 1.7253239696349534 1.8734814178286538 1.8811320556814035
          1.9737605703509118 1.976490022168249 1.9785221267695305 1.9892531334996608 1.9923946833581505 2.0124891708298693
          2.022456972137955 2.0266571050001008 2.0262369145490426 2.026641261922417 2.010266301573036 2.007814132182357
          1.9982879537048144 1.9992070448094135 2.008392905935566 2.01798933198354 2.018994620258079 2.0175654355237977
          2.0217706481177373 2.0222717345059715 2.0175894817774767 2.016652316154667 2.0243237645061383 2.0165115112929817
          2.0234834955725747 2.032461378143453 2.0390134078059825 2.0570754085600487 2.0575926632630344 2.0622719909667704
          2.059634341772939 2.0749359417344135 2.075243245714449 2.100544606737373 2.1196960872009027 2.1220255476072607
          2.120350972859358 2.121561952908049 2.10506180024036 2.090198859508764 2.0901990808238535 2.0902265238949256
          2.0783152836805248 2.0887527638009304 2.08877038220247 2.0892356235047846 2.0891903956143048 2.0893326649327166
          2.0963038615348792 2.0970438877949493 2.085365063100398 2.08989502393559 2.0908434993183858 2.0974962469693152
          2.119017826592226 2.135568364474239 2.1464398290752835 2.139334700933826 2.146172817139291 2.1582735413102023
          2.1575782623705897 2.1528008903986318 2.1349050628569666 2.1187377786519845 2.1210576312448013 2.120605909682937
          2.117598042495343 2.1158091023708105 2.115690001408117 2.1166999235091475 2.116127713863507 2.1143643953973723
          2.0964812989533 2.111956286324689 2.111923959043549 2.1263777856259662 2.131302636873306 2.132950947439622
          2.138790684500033 2.1447484989257273 2.144527787685402 2.1392063965567707 2.1470023371632276 2.146888328003124
          2.1456502224807967 2.1337417444246025 2.13105970910242 2.121070103933126 2.128037403631978 2.128858105730556
          2.139967349532527 2.1398515941811325 2.14048872767543 2.1462398470650377 2.15085476100772 2.1476074055054477
          2.135326661530838 2.136301514096467 2.162444871365519 2.1658687629788034 2.1914282908988545 2.205592944338305
          2.210692961295197 2.21878403160579 2.2190364686533846 2.2376114319394707 2.2526215694762834 2.25697106055819
          2.26089462734518 2.2642439553498677 2.285256239926285 2.288298470270763 2.2895204435131156 2.2909105936356626
          2.302628327453068 2.3018507833916413 2.260872831903893 2.2353014538877107 2.209493348363156 2.208651136039996
          2.179256988687416 2.1797653237911656 2.1884073213804993 2.1949798884125054 2.1989021784257528 2.20542844367811
          2.2084464991227786 2.2175995429785065 2.251190460172672 2.2658604318912885 2.275626594160715 2.291563536586976
          2.3247065974239405 2.3277476436179105 2.3365600737440717 2.34310005286232 2.362013925132838 2.362820197724502
          2.363972538677849 2.364032934335424 2.3639077458870656 2.361704562503029 2.3824429812134067 2.383323358809558
          2.371644613837231 2.3850630422772996 2.382522449016955 2.3734358956150277 2.368681743337815 2.3650237896542077
          2.3584985295271603 2.3379834803710717 2.3333518287710056 2.329262947156598 2.305670925488201 2.300266910896193
          2.306649806154289 2.3066005771792186 2.304320278153994 2.2928251517836964 2.292565940271508 2.2936072343866587
          2.2938553756021545 2.2959554828341306 2.304389369494737 2.309107301656692 2.3193802256525182 2.3207410180815464
          2.320120948679021 2.32295548534743 2.3099068247241568 2.305153639188166 2.2932601809417754 2.2913220767244464
          2.2835211949757053 2.2717829960622877 2.25701298898087 2.2574299760084178 2.257384134398838 2.2483583579414135
          2.247075475388116 2.2469536540869552 2.248895145763083 2.2512135125084543 2.2501236469462524 2.2537290260540463
          2.2538446023761463 2.255039899692822 2.257489772901411 2.2578506453681797 2.2852718712497815 2.285105140452265
          2.279815206999478 2.239329788142359 2.2232007382215535 2.220051731481898 2.170145751624134 2.165466018490924
          2.1579064029481416 2.1566426805421988 2.141025611753299 2.122657730272396 2.1144293512026877 2.0929978454090374
          2.0732772661658365 2.027839657432721 2.0275715972112476 2.0256227850338373 2.0148443653507613 2.0072560286273
          2.0053671476892045 1.9888149405698456 1.986946299022096 2.007872893750899 2.011364222856481 2.0113639933606624
          2.011345098204907 2.014193096804592 2.0141879051390434 2.0128951804173854 2.025724893980969 2.0257670160962555
          2.0263443368528278 2.0063447535704677 1.9944704485192228 1.9462623946242148 1.943913453926016 1.9188556027156962
          1.9188029898668846 1.9134768540914884 1.8717448587300871 1.868556114753415 1.869121684399002 1.859299118944879
          1.8593720704349535 1.8617440219533696 1.8622868762126485 1.8695227820205078 1.871197503295889 1.87284168090063
          1.8735033001928931 1.869614896245322 1.8751229318604237 1.8798312684641587 1.8875004766115147 1.8963743433454159
          1.9184607987208175 1.9188755718311654 1.9391994542382127 1.9330987342897177 1.9281421135693502 1.9106666080384809
          1.9123153100111479 1.9174945581974836 1.866616728130458 1.859731892092415 1.8662321228835963 1.8676714638578327
          1.8717824069679483 1.870166157166164 1.8448476464250279 1.8200125504293552 1.8028014851018401 1.7938516766043757
          1.801456171398502 1.8066738013258616 1.81130291969051 1.8115682317076127 1.8201729740770816 1.8263272646091673
          1.8276382307117174 1.8202663916868946 1.8505429536832467 1.8505766357977749 1.8484822592589802 1.868820826823868
          1.8590511342869034 1.859032626596619 1.8544242117158078 1.8185358018869229 1.8232546135944856 1.834301818379943
          1.837125884193334 1.8372973744222896 1.835741853913817 1.8293217580279275 1.8058830022660481 1.8031024864552643
          1.8024817238265627 1.8098513253019743 1.8285293470011765 1.828484758040217 1.8191985488896705 1.808373094125558
          1.8096936403927952 1.7927929345014644 1.7973441748065202 1.8130643047417447 1.8141646107859848 1.810768221594193
          1.814214580580579 1.813859179167186 1.8197986362509886 1.8266153293093472 1.827560129338182 1.8340662023897207
          1.8355965088733208 1.8547256528719969 1.8547555671769953 1.8622042291216014 1.8842908485091907 1.9023402361728583
          1.9113042153562558 1.9231879340920215 1.928246906581104 1.9316963165074934 1.953515249564422 1.9536017080361692
          1.9578381731517882 1.965206484051642 1.9774619727356568 1.9924857459436278 1.9959119909358904 2.04721735984994
          2.047864040936367 2.041675539529206 2.0552210600151724 2.047607615615357 2.040210450633921 2.03438283712747
          2.043115104663392 2.0343693756040553 2.0175099051959067 2.029852618809642 2.0278777105142702 2.0109121539002603
          1.997451894967074 1.983259329583965 1.946388605783002 1.9413748330762772 1.9324548241597694 1.8984606048320516
          1.8922187240410955 1.8841330158219853 1.8921619601372024 1.8916880118739328 1.8959612152501042 1.8934470320076466
          1.8853520320527826 1.870051539004933 1.8459623161271093 1.8562610592514348 1.8588383321902728 1.8605912867246137
          1.872222290578905 1.8592681889468303 1.8486291648949875 1.8040469719064094 1.7836283416927552 1.7756010906485407
          1.7296638522437395 1.6967517118800035 1.69504769732174 1.6119037401359986 1.610131595707334 1.538998684076137
          1.516039391845611 1.504114919068027 1.4535446202141429 1.4538521348785138 1.4514667773022947 1.453219126923975
          1.4684583012581405 1.4684705892326841 1.442966498555073 1.4377966382936531 1.4381601454607047 1.436595611441926
          1.4175372761234155 1.4060458970295109 1.389402249018516 1.3737380655596974 1.3412094199750184 1.3350376147404872
          1.328210290709466 1.3215865652079208 1.3211098829031804 1.3140010943541642 1.3087431478745795 1.3158987572632888
          1.3112765772807973 1.329732169231726 1.3408412476433156 1.3512993528788253 1.3512042886012838 1.3172358492758078
          1.3140857515518611 1.2389211272030978 1.2381732831435819 1.1738203741840663 1.173036872588698 1.159730214466693
          1.1616447878387512 1.148411043061196 1.1446700710290627 1.1541795656851486 1.16768055908001 1.1659547044630634
          1.1504636547783453 1.1436182443959286 1.118296762475853 1.1227155735079102 1.141609603035645 1.386327515198903
          1.7057761947737657 1.772035409189735 1.9474277138063985 1.9738858571161741 1.9870790695525395 2.1849912879358047
          2.282833317575087 2.691112888953815 2.88925550161903 3.059300402394223 3.1738704366393855 3.371896330809077
          3.753535391025585 4.562160751602762 4.564161592309102 5.0623709281878595 5.064151571075869 5.507531650190406
          6.682514043862765 6.894713744996334 7.130426566349696 7.415710800896871 8.11761169867858 8.932051657223376
          9.200179527753146 10.258569508197478 10.992025832576902 12.6478228521446 12.885329136206877 13.214892712687881
          13.3632330589375 13.464463575845564 13.754600762358349 13.94192709121997 14.301871947087756 14.36106965703916
          14.384746525653387 14.4515465516632 14.571686288195071 14.613998631302778 14.622873571886496 14.62437917016818
          14.630262905337357 14.641934842755141 14.65616251140073 14.656268624508478 14.669426649869102 14.687651182553026
          14.704516405344592 14.718139888317818 14.73107913303221 14.758303145978406 14.77400370523751 14.774706269985685
          14.805067512377521 14.806609847463145 14.834662980041529 14.835999327481467 14.836073489943434 14.85453994297322
          14.87488125145574 14.945657606006968 14.945819195474565 14.985066428554074 14.991081272272911 14.993234035632174
          15.013214893570881 15.065422178549717 15.108663187846403 15.11957000443165 15.155601172160413 15.156811357100699
          15.182732426924302 15.207131224088368 15.209454119287685 15.280449855371144 15.282644439034504 15.324424887363916
          15.379197170555152 15.385046665825763 15.389000929367699 15.252698826207935 15.228148006429851 15.107454239896615
          15.021833188527472 14.84901470447246 14.369208315330035 14.059700571867772 13.728480534801509 13.463946929911275
          13.354052577347904 13.028389527234209 12.777995807778726 0.8323069230333543 0.8468502586167898 0.8789454979097563
          0.9031331494203294 0.9991203171260367 1.0162685285583188 1.048393587644555 1.142059060780296 1.1662527264818734
          1.1992347850401095 1.2181760938404969 1.2894270558305914 1.2962429707005387 1.3216164469427985 1.363279976304524
          1.3640269736662558 1.3836008745731134 1.3934608405510986 1.425516669768237 1.4961795623957486 1.499644015917277
          1.4947286437238578 1.5118864647995154 1.5378830548593112 1.5382792653637902 1.5698853343689703 1.5711119588754445
          1.593795280070956 1.5853468939175142 1.5869527475351937 1.5839103800359282 1.5838914068480099 1.5791670830563762
          1.590882944076194 1.5910146154042775 1.5857491167377729 1.5968609708871278 1.5968900242513289 1.593060115484032
          1.5896635915041923 1.5982325195353855 1.5841586005456116 1.5856495202035912 1.5958265769191213 1.5876602084124438
          1.5793784724764646 1.5829084143481147 1.5697726961180885 1.5671463838702566 1.5540217490735941 1.5362777146970403
          1.5361364086728762 1.528802826101672 1.5263341643805306 1.5013545789566476 1.4694655093526237 1.4693115827538568
          1.4640228176089864 1.4176585463496472 1.4182991828648808 1.4128784592013504 1.3656569921816326 1.3350736255782416
          1.2976021397482977 1.259581574794716 1.2611184958444361 1.2753691053777296 1.2790314704685135 1.319165056210279
          1.3309590677753023 1.3467537553447269 1.347390039918381 1.3987759602411833 1.4039387045504137 1.4110911814472358
          1.43501459747269 1.43351275462888 1.4334336654381004 1.4536743959721004 1.4831335405073305 1.5199138048828529
          1.5127613946192078 1.5828024714625601 1.5823503100271674 1.5735909844186886 1.615585326526328 1.6186092375241654
          1.6190595757293933 1.620782868767329 1.649890509520477 1.659932380238082 1.6759019073923376 1.6774285824446493
          1.6935163726595823 1.7017722503541122 1.7179402148708658 1.7179398983275522 1.7179006469566898 1.7149939818943347
          1.715054903757402 1.7124751085632064 1.7141217843541474 1.7225115093954606 1.7485200259535776 1.756432424434929
          1.7486647725872342 1.7693664772775324 1.771857666063712 1.7663984927492142 1.7788324273723721 1.7808520029664219
          1.7767165938327707 1.7876954737529505 1.7867827156249598 1.7446920092152902 1.7474967650244566 1.7431020413532545
          1.7419402023568076 1.7496734695852663 1.7433457058481787 1.7201449423800623 1.7126404901705525 1.7121702850310128
          1.7008565137004747 1.726857566030975 1.7388701753361504 1.7419842531790763 1.7401713647701318 1.7291733195416112
          1.7346693085660772 1.7482572445237232 1.7524863145834497 1.7524248720399078 1.7487944085518987 1.7429558516561958
          1.7525443939816578 1.755723305396094 1.759636902324359 1.7559120779481712 1.7565129709375744 1.7698544096684126
          1.7739074198215896 1.763127902844407 1.7608533245489841 1.7470846446548636 1.7444961456528323 1.7345678976104615
          1.7258042770013224 1.7192473523813971 1.7133675362453313 1.7199960671369166 1.719996296169103 1.70284464039185
          1.705762514330504 1.6945526841665048 1.6871075275391454 1.6828613814876485 1.6779559766961072 1.6979787271326785
          1.7380879811729268 1.7513588900983292 1.7574407747541416 1.780998948005626 1.80602945516692 1.809208457933552
          1.809235007012469 1.8241873517333247 1.8356262038876046 1.8386829150102877 1.845833718083495 1.8410429028531599
          1.8412359564625544 1.8557919121088187 1.8571931545238936 1.8707404969612953 1.8690330624304252 1.8510991566933104
          1.849965405778442 1.8461145847567713 1.8370634899201639 1.8328378125672797 1.8292930370691556 1.8084059941064141
          1.8125352891657796 1.8133715091302898 1.7997442367711876 1.8092529400760802 1.8158407026107874 1.81475986282061
          1.8299615714554092 1.857774511163897 1.873596344189584 1.8805877575224461 1.8833246869376512 1.8995041586046222
          1.9093707558347859 1.9468042968565777 1.959380742699239 1.9727169086843797 2.0188488870456514 2.024943871444789
          2.0218730201286297 2.0206836737808667 2.0247240048723945 2.029565699413382 2.0265870744445773 2.0263847661398318
          2.010266301573036 2.007814132182357 1.9982879537048144 1.9992070448094135 2.008392905935566 2.01798933198354
          2.018994620258079 2.0175654355237977 2.0217706481177373 2.0222717345059715 2.0175894817774767 2.016652316154667
          2.0243237645061383 2.0165115112929817 2.0234834955725747 2.032461378143453 2.0390134078059825 2.0570754085600487
          2.0575926632630344 2.0622719909667704 2.059634341772939 2.0749359417344135 2.075243245714449 2.100544606737373
          2.1196960872009027 2.1220255476072607 2.120350972859358 2.121561952908049 2.10506180024036 2.090198859508764
          2.0901990808238535 2.0902265238949256 2.0783152836805248 2.0887527638009304 2.08877038220247 2.0892356235047846
          2.0891903956143048 2.0893326649327166 2.0963038615348792 2.0970438877949493 2.085365063100398 2.08989502393559
          2.0908434993183858 2.0974962469693152 2.119017826592226 2.135568364474239 2.1464398290752835 2.139334700933826
          2.146172817139291 2.1582735413102023 2.1575782623705897 2.1528008903986318 2.1349050628569666 2.1187377786519845
          2.1210576312448013 2.120605909682937 2.117598042495343 2.1158091023708105 2.115690001408117 2.1166999235091475
          2.116127713863507 2.1143643953973723 2.0964812989533 2.111956286324689 2.111923959043549 2.1263777856259662