# vtk DataFile Version 5.1
vtk output
ASCII
DATASET POLYDATA
FIELD FieldData 3
MaterialNames 1 2 string
mtl1
NO_MATERIAL

MaterialLibraries 1 1 string
BIIBEA_vtkMRMLModelNodeI.mtl

SPACE 1 1 string
LPS

POINTS 4343 float
68.7261 -187.577 1677.48 68.7658 -187.454 1677.69 68.8118 -187.328 1677.91 
68.8696 -187.198 1678.13 68.9429 -187.066 1678.37 69.0331 -186.933 1678.61 
69.1391 -186.804 1678.86 69.258 -186.68 1679.1 69.3864 -186.564 1679.34 
69.5215 -186.454 1679.57 69.6619 -186.346 1679.8 69.8073 -186.237 1680.02 
69.9578 -186.122 1680.26 70.1126 -185.995 1680.51 70.269 -185.854 1680.76 
70.4221 -185.696 1681.04 70.5654 -185.522 1681.32 70.6918 -185.33 1681.6 
70.7946 -185.121 1681.89 70.8683 -184.895 1682.18 70.9093 -184.652 1682.46 
70.9158 -184.391 1682.74 70.8879 -184.114 1683.01 70.827 -183.823 1683.28 
70.7362 -183.52 1683.53 70.6197 -183.211 1683.76 70.482 -182.899 1683.97 
70.3266 -182.588 1684.16 70.1553 -182.282 1684.33 69.9677 -181.979 1684.47 
69.7616 -181.677 1684.58 69.5353 -181.373 1684.68 69.2891 -181.065 1684.77 
69.0264 -180.754 1684.83 68.7528 -180.44 1684.89 68.4748 -180.129 1684.95 
68.1979 -179.822 1685 67.9257 -179.521 1685.06 67.6606 -179.227 1685.13 
67.4048 -178.945 1685.21 67.1606 -178.676 1685.32 66.9303 -178.425 1685.45 
66.7156 -178.191 1685.59 66.517 -177.973 1685.76 66.3336 -177.766 1685.96 
66.1641 -177.566 1686.17 66.0072 -177.368 1686.4 65.8623 -177.169 1686.64 
65.7288 -176.969 1686.89 65.6058 -176.767 1687.15 65.4919 -176.565 1687.41 
65.3851 -176.362 1687.68 65.283 -176.162 1687.95 65.1838 -175.968 1688.23 
65.0862 -175.78 1688.51 64.9892 -175.602 1688.79 64.8931 -175.434 1689.09 
64.7989 -175.275 1689.39 64.7091 -175.126 1689.69 64.6265 -174.989 1689.98 
64.5535 -174.863 1690.27 64.4909 -174.748 1690.54 64.4381 -174.64 1690.79 
64.3932 -174.538 1691.02 64.3539 -174.438 1691.26 64.3182 -174.337 1691.49 
64.2846 -174.237 1691.72 64.2516 -174.136 1691.95 64.218 -174.035 1692.18 
64.1819 -173.931 1692.42 64.1409 -173.822 1692.65 64.0922 -173.703 1692.88 
64.0329 -173.572 1693.12 63.9601 -173.423 1693.36 63.8719 -173.254 1693.62 
63.7665 -173.061 1693.88 63.6426 -172.842 1694.16 63.4992 -172.595 1694.44 
63.3363 -172.323 1694.73 63.1554 -172.032 1695.02 62.9596 -171.728 1695.31 
62.7531 -171.425 1695.57 62.5392 -171.129 1695.8 62.3192 -170.846 1696 
62.0918 -170.573 1696.17 61.854 -170.305 1696.31 61.6032 -170.036 1696.42 
61.3375 -169.759 1696.52 61.0569 -169.473 1696.6 60.7624 -169.178 1696.67 
60.4564 -168.874 1696.74 60.1418 -168.565 1696.79 59.8208 -168.254 1696.85 
59.4935 -167.942 1696.91 59.1568 -167.628 1696.98 58.8054 -167.312 1697.06 
58.4342 -166.989 1697.15 58.0414 -166.659 1697.27 57.6313 -166.324 1697.4 
57.213 -165.99 1697.55 56.7987 -165.664 1697.73 56.3991 -165.352 1697.92 
56.0209 -165.057 1698.13 55.6652 -164.779 1698.36 55.3289 -164.516 1698.62 
55.0074 -164.264 1698.9 54.6971 -164.022 1699.21 54.3967 -163.792 1699.54 
54.1068 -163.576 1699.88 53.8286 -163.378 1700.23 53.563 -163.199 1700.58 
53.3103 -163.038 1700.92 53.0706 -162.894 1701.26 52.8442 -162.766 1701.59 
52.6321 -162.655 1701.91 52.4359 -162.56 1702.22 52.2571 -162.482 1702.51 
52.0959 -162.42 1702.79 51.9502 -162.372 1703.05 51.8146 -162.335 1703.31 
51.6815 -162.305 1703.58 51.5433 -162.28 1703.88 51.3949 -162.256 1704.22 
51.2361 -162.234 1704.6 51.0714 -162.213 1705.02 50.9086 -162.197 1705.46 
50.7559 -162.186 1705.91 50.6195 -162.182 1706.35 50.5022 -162.185 1706.78 
50.4038 -162.193 1707.18 50.3221 -162.205 1707.57 50.2544 -162.219 1707.95 
50.1981 -162.234 1708.32 50.1508 -162.251 1708.68 50.1108 -162.271 1709.02 
50.0766 -162.296 1709.34 50.0469 -162.328 1709.65 50.0207 -162.369 1709.94 
49.9975 -162.418 1710.22 49.9769 -162.475 1710.5 49.9595 -162.537 1710.79 
49.9459 -162.603 1711.09 49.937 -162.67 1711.4 49.9335 -162.739 1711.72 
49.9352 -162.811 1712.05 49.9409 -162.886 1712.41 49.948 -162.967 1712.78 
49.9531 -163.055 1713.18 49.9523 -163.151 1713.6 49.9421 -163.254 1714.03 
49.9199 -163.364 1714.48 49.8844 -163.478 1714.94 49.8353 -163.595 1715.39 
49.773 -163.715 1715.84 49.6973 -163.836 1716.28 49.6074 -163.96 1716.71 
49.501 -164.088 1717.15 49.3756 -164.223 1717.59 49.2293 -164.367 1718.04 
49.0623 -164.522 1718.5 48.8768 -164.69 1718.96 48.6769 -164.868 1719.41 
48.4677 -165.058 1719.86 48.2536 -165.257 1720.29 48.038 -165.467 1720.7 
47.822 -165.686 1721.11 47.6057 -165.914 1721.5 47.3888 -166.153 1721.88 
47.1713 -166.399 1722.26 46.9544 -166.653 1722.63 46.7389 -166.914 1722.99 
46.5256 -167.183 1723.35 46.314 -167.459 1723.71 46.1035 -167.742 1724.05 
45.8937 -168.031 1724.39 45.6849 -168.321 1724.71 45.4783 -168.606 1725.01 
45.2756 -168.879 1725.29 45.0781 -169.138 1725.54 44.8872 -169.378 1725.77 
44.7035 -169.601 1725.99 44.5265 -169.808 1726.18 44.3535 -170.004 1726.37 
44.1795 -170.196 1726.56 43.9972 -170.394 1726.76 43.7985 -170.606 1726.97 
43.5772 -170.837 1727.2 43.3306 -171.089 1727.44 43.0608 -171.357 1727.7 
42.773 -171.636 1727.96 42.4738 -171.919 1728.22 42.1681 -172.205 1728.48 
41.8578 -172.494 1728.74 41.5422 -172.787 1729 41.2189 -173.089 1729.26 
40.8866 -173.399 1729.53 40.546 -173.714 1729.8 40.2002 -174.027 1730.08 
39.8528 -174.333 1730.35 39.5051 -174.626 1730.62 39.1538 -174.906 1730.88 
38.7917 -175.178 1731.14 38.4113 -175.449 1731.4 38.0083 -175.721 1731.67 
37.5853 -175.996 1731.95 37.1508 -176.271 1732.22 36.7156 -176.54 1732.49 
36.2884 -176.798 1732.75 35.8739 -177.045 1733 35.4735 -177.282 1733.25 
35.0874 -177.512 1733.51 34.7175 -177.735 1733.76 34.3678 -177.951 1734.02 
34.0437 -178.158 1734.26 33.75 -178.35 1734.5 33.4885 -178.525 1734.72 
33.257 -178.678 1734.92 33.0491 -178.813 1735.09 32.8554 -178.931 1735.26 
32.6659 -179.041 1735.41 32.4716 -179.149 1735.57 32.2663 -179.26 1735.73 
32.0476 -179.378 1735.9 31.8162 -179.504 1736.08 31.5749 -179.638 1736.27 
31.3267 -179.777 1736.47 31.0736 -179.923 1736.69 30.8154 -180.076 1736.93 
30.5497 -180.239 1737.19 30.2727 -180.417 1737.48 29.981 -180.613 1737.79 
29.6737 -180.826 1738.13 29.3532 -181.053 1738.48 29.0249 -181.287 1738.85 
28.6956 -181.521 1739.21 28.3713 -181.75 1739.56 28.0551 -181.968 1739.89 
27.747 -182.178 1740.21 27.4441 -182.382 1740.5 27.1434 -182.583 1740.78 
26.8437 -182.786 1741.05 26.5472 -182.991 1741.3 26.2585 -183.199 1741.55 
25.9824 -183.408 1741.8 25.7208 -183.618 1742.05 25.4721 -183.83 1742.3 
25.232 -184.044 1742.56 24.9957 -184.26 1742.83 24.7595 -184.479 1743.11 
24.5219 -184.699 1743.39 24.2829 -184.917 1743.69 24.0434 -185.135 1743.99 
23.8044 -185.351 1744.31 23.5664 -185.569 1744.64 23.3298 -185.788 1744.99 
23.0956 -186.008 1745.34 22.8665 -186.225 1745.7 22.6474 -186.435 1746.06 
22.4441 -186.629 1746.4 22.2611 -186.803 1746.72 22.0992 -186.953 1747.01 
21.9545 -187.082 1747.27 21.818 -187.196 1747.51 21.677 -187.302 1747.74 
21.516 -187.408 1747.99 21.3194 -187.518 1748.24 21.0732 -187.637 1748.51 
20.7689 -187.762 1748.8 20.405 -187.893 1749.1 19.9874 -188.026 1749.39 
19.528 -188.159 1749.67 19.0407 -188.294 1749.92 18.5374 -188.433 1750.14 
18.0254 -188.581 1750.32 17.5069 -188.744 1750.47 16.9807 -188.924 1750.57 
16.445 -189.125 1750.63 15.8999 -189.344 1750.65 15.3499 -189.577 1750.63 
14.8031 -189.817 1750.55 14.2706 -190.054 1750.43 13.764 -190.28 1750.28 
13.2928 -190.488 1750.1 12.8628 -190.677 1749.9 12.4758 -190.846 1749.7 
12.1301 -191 1749.49 11.8221 -191.141 1749.3 11.5475 -191.274 1749.11 
11.3018 -191.403 1748.93 11.0807 -191.529 1748.76 10.8793 -191.655 1748.6 
10.6932 -191.782 1748.44 10.518 -191.911 1748.29 10.3497 -192.041 1748.14 
10.1845 -192.173 1747.99 10.0183 -192.31 1747.84 9.8456 -192.457 1747.68 
9.65948 -192.624 1747.51 9.45075 -192.82 1747.33 9.20859 -193.055 1747.12 
8.92156 -193.337 1746.89 8.57898 -193.668 1746.65 8.17225 -194.043 1746.41 
7.69596 -194.449 1746.19 7.14871 -194.869 1746.02 6.53377 -195.288 1745.92 
5.85924 -195.69 1745.89 5.13718 -196.066 1745.95 4.38137 -196.412 1746.09 
3.60436 -196.728 1746.31 2.81523 -197.017 1746.6 2.01938 -197.285 1746.95 
1.22127 -197.534 1747.34 0.428648 -197.768 1747.78 -0.344162 -197.985 1748.25 
-1.07687 -198.182 1748.73 -1.74833 -198.355 1749.21 -2.34379 -198.5 1749.7 
-2.86009 -198.619 1750.17 -3.30602 -198.712 1750.65 -3.69793 -198.787 1751.13 
-4.05357 -198.849 1751.62 -4.38742 -198.905 1752.11 -4.70889 -198.959 1752.62 
-5.02306 -199.014 1753.14 -5.33231 -199.071 1753.67 -5.63768 -199.13 1754.2 
-5.93966 -199.187 1754.75 -6.23852 -199.242 1755.3 -6.53457 -199.291 1755.86 
-6.82807 -199.334 1756.42 -7.11894 -199.371 1756.98 -7.40618 -199.401 1757.55 
-7.6876 -199.423 1758.13 -7.95998 -199.439 1758.7 -8.22002 -199.446 1759.26 
-8.46547 -199.445 1759.81 -8.69602 -199.437 1760.34 -8.91342 -199.422 1760.87 
-9.12062 -199.4 1761.39 -9.32038 -199.372 1761.91 -9.5141 -199.341 1762.43 
-9.70144 -199.307 1762.95 -9.88102 -199.274 1763.46 -10.0517 -199.24 1763.98 
-10.2139 -199.206 1764.49 -10.3695 -199.17 1765.01 -10.5219 -199.128 1765.54 
-10.6735 -199.079 1766.09 -10.8251 -199.022 1766.64 -10.9751 -198.959 1767.21 
-11.1203 -198.893 1767.77 -11.2576 -198.825 1768.31 -11.3854 -198.756 1768.85 
-11.5044 -198.687 1769.38 -11.6167 -198.614 1769.94 -11.7251 -198.536 1770.54 
-11.8324 -198.451 1771.2 -11.9406 -198.356 1771.93 -12.0513 -198.25 1772.73 
-12.1649 -198.136 1773.58 -12.2805 -198.016 1774.46 78.3805 -204.11 1670.94 
78.3014 -203.769 1671.16 78.2292 -203.44 1671.38 78.1701 -203.134 1671.59 
78.1279 -202.856 1671.8 78.1036 -202.602 1672 78.096 -202.365 1672.19 
78.1021 -202.134 1672.39 78.1186 -201.899 1672.59 78.1418 -201.651 1672.81 
78.1689 -201.386 1673.03 78.198 -201.103 1673.27 78.2278 -200.802 1673.52 
78.2569 -200.486 1673.78 78.2834 -200.158 1674.04 78.3042 -199.822 1674.31 
78.3153 -199.478 1674.57 78.3122 -199.129 1674.81 78.2907 -198.776 1675.04 
[...]
POINT_DATA 4343
FIELD FieldData 3
Radius 1 4343 double
1.4379394365 1.4865123897 1.4865122568 1.4864957865 1.3708739363 1.372045373 1.3641617648 1.3968202616 1.4240444176 
1.4224715407 1.432210568 1.4457326525 1.4305486695 1.4525675538 1.4605633194 1.4257283286 1.3837779116 1.5063124083 
1.5213322763 1.4981510057 1.5367569286 1.5369226617 1.5190166844 1.5202791771 1.5507826168 1.5371020587 1.4788244878 
1.4315715518 1.4469267793 1.4620701013 1.4601429141 1.4504713648 1.455670039 1.4685626202 1.4640457819 1.4029500571 
1.4030284767 1.4094850268 1.4851393777 1.5101064421 1.430510409 1.4306669226 1.4696388134 1.4913847868 1.4970741889 
1.489729836 1.4901844753 1.503037579 1.6799964124 1.6809007615 1.6808733579 1.6388077675 1.6474962063 1.714866551 
1.7184403035 1.7186200911 1.6925968883 1.6188293056 1.6759739081 1.7456766941 1.7575514014 1.7540223754 1.7561641174 
1.7588681925 1.746849736 1.7318460518 1.6790413071 1.6963295344 1.7055758931 1.7209316906 1.7662787255 1.7851668212 
1.7925476163 1.7856588987 1.8204778821 1.8401490856 1.8526506395 1.8472054123 1.8223787304 1.7729915524 1.8567820927 
1.7697949644 1.76988893 1.7815406651 1.7807328351 1.7591009423 1.7478609431 1.7066697611 1.7066717667 1.7069204504 
1.7385938262 1.6928956914 1.7171596016 1.7271389675 1.7459774678 1.7695209101 1.7698196041 1.7458357184 1.8390339135 
1.7857721607 1.7905076016 1.7827223972 1.7894810916 1.7899237352 1.8448115478 1.865874728 1.766263689 1.8220266635 
1.7655883514 1.7654991886 1.8129056942 1.8163749093 1.88720346 1.8658009614 1.8344912994 1.6606607994 1.7028460562 
1.7619866048 1.771665527 1.7732055464 1.773245426 1.7781905003 1.7500594648 1.705225085 1.6857291059 1.6977430339 
1.7009728666 1.6362944134 1.733747441 1.7349678371 1.7364007478 1.7168361302 1.7182500834 1.679905205 1.7516441743 
1.7741044196 1.8044002037 1.8081719173 1.8140003473 1.829343039 1.803427641 1.7307049275 1.7253889601 1.7554155944 
1.7569867476 1.6947275275 1.6354549747 1.5655684365 1.5454225273 1.5884008424 1.586356617 1.5510187425 1.5464411871 
1.5668319558 1.6067487213 1.6067012743 1.6027948045 1.5319847924 1.7207570038 1.7221603305 1.7441174125 1.8708734312 
1.8560897525 1.8579065648 1.8365232817 1.8501115422 1.9116205579 1.9088817148 1.858739629 1.8674676332 1.874908876 
1.9086466224 1.8972821045 1.8805618681 1.8618814488 1.8927848661 1.9890742478 1.9941614636 2.0767712357 2.0374651103 
2.0414967263 2.043045535 2.0690305609 2.0789728142 2.0972772948 2.0981166327 2.0798268548 2.0669231077 2.1433821418 
2.0863229787 2.0707462779 2.061353507 2.0885787598 2.1222351969 2.1220523744 2.1056392754 2.0663139897 2.0757869244 
2.0350649417 2.0676212948 2.0758396762 2.0747368733 2.0743419746 1.920716035 1.9680000702 1.9698450843 1.9816152207 
1.9830916532 1.9827198132 1.9603565794 1.9441163401 1.9089145448 1.8674978892 1.8580107498 1.8637818807 1.8534541066 
1.8404412085 1.8406721338 1.8500630941 1.8603361202 1.8639497674 1.8599962899 1.8626302327 1.9354993423 1.9355732613 
1.9539791074 1.9735470011 1.931908158 1.9319643897 1.9459660876 1.9365879181 1.9484954184 1.9784691906 1.961082082 
1.8777139881 1.8842093688 1.8776051787 1.8580692756 1.7069098613 1.7068438372 1.6904038239 1.810060233 1.8371053364 
1.8146943004 1.8146827471 1.8118059733 1.7477459183 1.7524794456 1.7885724496 1.7870090257 1.8371126619 1.7763645912 
1.7462800337 1.7364583365 1.7209758945 1.723214388 1.7585404431 1.7995344742 1.954973076 2.0277484294 2.0449182765 
2.0493047107 2.1623787789 2.2261936948 2.2263522438 2.2658309477 2.3869861059 2.5028646908 2.55046227 2.4552442891 
2.4521505402 2.3458704702 2.1917452365 2.1973373399 2.1681847208 2.1683826725 2.1290800361 2.1199294678 2.223068499 
2.2693644265 2.3251735386 2.5863562488 3.0059359954 3.3316647195 3.3340198804 3.9204549602 3.9236045843 4.3141579651 
4.7044742728 4.7603297627 4.9010311818 4.9031033553 5.419074571 5.421915385 5.5966254453 5.9480201817 6.141373065 
6.3456439741 6.3465355409 6.5685356729 6.6743887304 6.971802508 8.2044882395 8.7994209955 9.3387423033 9.803463087 
10.394271615 10.973995507 11.552882295 11.84331996 12.056574646 12.357429853 12.724344328 12.726925251 13.313147352 
14.545225859 14.602907393 14.648811473 14.662909671 14.746259063 14.753594672 14.791243794 14.793398229 14.860896928 
14.89868375 15.024091847 15.056025221 15.170022986 15.211544856 15.288722245 15.317015221 15.453874571 15.498583613 
15.53253665 15.698289302 15.69860029 15.776036243 15.78051756 15.790940114 15.913324491 16.021851707 16.154446158 
16.157220481 16.2659847 16.274343402 16.350308765 16.398010495 16.414532102 16.416780454 16.4523016 16.472310171 
16.642276273 16.656497161 16.672855001 16.686364416 16.695958798 16.717927015 16.740207813 16.781868682 16.80928766 
16.843052381 16.966824941 0.95065441802 1.1752326294 1.193237015 1.1714930799 1.2155647736 1.2397500854 1.258927936 
1.2474547799 1.2473573173 1.2230891255 1.2698174418 1.289920247 1.3496546482 1.3566922766 1.3799839469 1.3771042236 
1.2856391344 1.3209010629 1.3042466945 1.2976642839 1.3057534722 1.3002142248 1.3248061033 1.3252072796 1.3497723274 
1.2924052822 1.30511233 1.3014372662 1.3021540791 1.2983619429 1.2629692492 1.2636365522 1.3185778288 1.3871389996 
1.2602062177 1.2438430836 1.231096031 1.3477572233 1.3660244941 1.3704822497 1.3656546167 1.3978750602 1.3979103349 
1.4066937472 1.4608648456 1.4608576698 1.4599678683 1.5434892966 1.5568053385 1.5644075413 1.455003532 1.4619401389 
1.5292578314 1.5365565876 1.5283495573 1.5664387922 1.5881927183 1.589689467 1.5890946782 1.4753770403 1.4311473249 
1.4865057731 1.3708739363 1.372045373 1.3641617648 1.3968202616 1.4240444176 1.4224715407 1.432210568 1.4457326525 
1.4305486695 1.4525675538 1.4605633194 1.4257283286 1.3837779116 1.5063124083 1.5213322763 1.4981510057 1.5367569286 
1.5369226617 1.5190166844 1.5202791771 1.5507826168 1.5371020587 1.4788244878 1.4315715518 1.4469267793 1.4620701013 
1.4601429141 1.4504713648 1.455670039 1.4685626202 1.4640457819 1.4029500571 1.4030284767 1.4094850268 1.4851393777 
1.5101064421 1.430510409 1.4306669226 1.4696388134 1.4913847868 1.4970741889 1.489729836 1.4901844753 1.503037579 
1.6799964124 1.6809007615 1.6808733579 1.6388077675 1.6474962063 1.714866551 1.7184403035 1.7186200911 1.6925968883 
1.6188293056 1.6759739081 1.7456766941 1.7575514014 1.7540223754 1.7561641174 1.7588681925 1.746849736 1.7318460518 
1.6790413071 1.6963295344 1.7055758931 1.7209316906 1.7662787255 1.7851668212 1.7925476163 1.7856588987 1.8204778821 
1.8401490856 1.8526506395 1.8472054123 1.8223787304 1.7729915524 1.8567820927 1.7697949644 1.76988893 1.7815406651 
1.7807328351 1.7591009423 1.7478609431 1.7066697611 1.7066717667 1.7069204504 1.7385938262 1.6928956914 1.7171596016 
1.7271389675 1.7459774678 1.7695209101 1.7698196041 1.7458357184 1.8390339135 1.7857721607 1.7905076016 1.7827223972 
1.7894810916 1.7899237352 1.8448115478 1.865874728 1.766263689 1.8220266635 1.7655883514 1.7654991886 1.8129056942 
1.8163749093 1.88720346 1.8658009614 1.8344912994 1.6606607994 1.7028460562 1.7619866048 1.771665527 1.7732055464 
1.773245426 1.7781905003 1.7500594648 1.705225085 1.6857291059 1.6977430339 1.7009728666 1.6362944134 1.733747441 
1.7349678371 1.7364007478 1.7168361302 1.7182500834 1.679905205 1.7516441743 1.7741044196 1.8044002037 1.8081719173 
1.8140003473 1.829343039 1.803427641 1.7307049275 1.7253889601 1.7554155944 1.7569867476 1.6947275275 1.6354549747 
1.5655684365 1.5454225273 1.5884008424 1.586356617 1.5510187425 1.5464411871 1.5668319558 1.6067487213 1.6067012743 
1.6027948045 1.5319847924 1.7207570038 1.7221603305 1.7441174125 1.8708734312 1.8560897525 1.8579065648 1.8365232817 
1.8501115422 1.9116205579 1.9088817148 1.858739629 1.8674676332 1.874908876 1.9086466224 1.8972821045 1.8805618681 
1.8618814488 1.8927848661 1.9890742478 1.9941614636 2.0767712357 2.0374651103 2.0414967263 2.043045535 2.0690305609 
2.0789728142 2.0972772948 2.0981166327 2.0798268548 2.0669231077 2.1433821418 2.0863229787 2.0707462779 2.061353507 
2.0885787598 2.1222351969 2.1220523744 2.1056392754 2.0663139897 2.0757869244 2.0350649417 2.0676212948 2.0758396762 
2.0747368733 2.0743419746 1.920716035 1.9680000702 1.9698450843 1.9816152207 1.9830916532 1.9827198132 1.9603565794 
1.9441163401 1.9089145448 1.8674978892 1.8580107498 1.8637818807 1.8534541066 1.8404412085 1.8406721338 1.8500630941 
1.8603361202 1.8639497674 1.8599962899 1.8626302327 1.9354993423 1.9355732613 1.9539791074 1.9735470011 1.931908158 
1.9319643897 1.9459660876 1.9365879181 1.9484954184 1.9784691906 1.961082082 1.8777139881 1.8842093688 1.8776051787 
1.8580692756 1.7069098613 1.7068438372 1.6904038239 1.810060233 1.8371053364 1.8146943004 1.8146827471 1.8118059733 
1.7477459183 1.7524794456 1.7885724496 1.7870090257 1.8371126619 1.7763645912 1.7462800337 1.7364583365 1.7209758945 
1.723214388 1.7585404431 1.7995344742 1.954973076 2.0277484294 2.0449182765 2.0493047107 2.1623787789 2.2261936948 
2.2263522438 2.2658309477 2.3869861059 2.5028646908 2.55046227 2.4552442891 2.4521505402 2.3458704702 2.1917452365 
2.1973373399 2.1681847208 2.1683826725 2.1290800361 2.1199294678 2.223068499 2.2693644265 2.3251735386 2.5863562488 
3.0059359954 3.3316647195 3.3340198804 3.9204549602 3.9236045843 4.3141579651 4.7044742728 4.7603297627 4.9010311818 
4.9031033553 5.419074571 5.421915385 5.5966254453 5.9480201817 6.141373065 6.3456439741 6.3465355409 6.5685356729 
6.6743887304 6.971802508 8.2044882395 8.7994209955 9.3387423033 9.803463087 10.394271615 10.973995507 11.552882295 
11.84331996 12.056574646 12.357429853 12.724344328 12.726925251 13.313147352 14.545225859 14.602907393 14.648811473 
14.662909671 14.746259063 14.753594672 14.791243794 14.793398229 14.860896928 14.89868375 15.024091847 15.056025221 
15.170022986 15.211544856 15.288722245 15.317015221 15.453874571 15.498583613 15.53253665 15.698289302 15.69860029 
15.776036243 15.78051756 15.790940114 15.913324491 16.021851707 16.154446158 16.157220481 16.2659847 16.274343402 
16.350308765 16.398010495 16.414532102 16.416780454 16.4523016 16.472310171 16.642276273 16.656497161 16.672855001 
16.686364416 16.695958798 16.717927015 16.740207813 16.781868682 16.80928766 16.843052381 16.966824941 0.65320307101 
0.97786804799 0.98761026206 0.99987578941 0.9037617689 0.91444550463 0.9668367903 1.0188088192 1.0223137618 0.85599188573 
0.92884833374 0.92908409611 0.98778892543 1.0410877301 0.94847648655 0.94822178225 0.88480041272 0.93807751985 0.8909560655 
0.88906872496 0.94720935887 0.9829412191 1.0701190847 1.1242485199 1.056467202 0.96587952771 1.0331158299 1.0331788177 
1.0488627854 1.0451768987 0.85328303984 0.85406305814 0.86628334481 0.90996574825 0.98201325442 1.0682168665 1.0686928777 
1.0979675666 1.0980547139 1.0992491455 1.0271763538 1.1623966174 1.1107153855 0.98209864082 0.98407565843 1.0008460541 
0.99776737987 1.1313571496 1.1311220623 1.1166641946 0.96366620386 0.9605970579 0.96377956148 0.94156544874 0.93244746641 
0.97231695698 1.0382197513 1.0493975405 1.0389728404 1.0377297194 1.0333428555 1.1862259437 1.2192302778 1.2686326703 
1.1462692323 1.1603692153 1.197723484 1.1977274757 1.1987214036 1.12003105 1.1991173899 1.1430240966 1.1652685115 
1.2507302893 1.3465588096 1.3819589346 1.5662912321 1.6106344195 1.6798589829 1.7093023985 1.6188293056 1.6759739081 
1.7456766941 1.7575514014 1.7540223754 1.7561641174 1.7588681925 1.746849736 1.7318460518 1.6790413071 1.6963295344 
1.7055758931 1.7209316906 1.7662787255 1.7851668212 1.7925476163 1.7856588987 1.8204778821 1.8401490856 1.8526506395 
1.8472054123 1.8223787304 1.7729915524 1.8567820927 1.7697949644 1.76988893 1.7815406651 1.7807328351 1.7591009423 
1.7478609431 1.7066697611 1.7066717667 1.7069204504 1.7385938262 1.6928956914 1.7171596016 1.7271389675 1.7459774678 
1.7695209101 1.7698196041 1.7458357184 1.8390339135 1.7857721607 1.7905076016 1.7827223972 1.7894810916 1.7899237352 
1.8448115478 1.865874728 1.766263689 1.8220266635 1.7655883514 1.7654991886 1.8129056942 1.8163749093 1.88720346 
1.8658009614 1.8344912994 1.6606607994 1.7028460562 1.7619866048 1.771665527 1.7732055464 1.773245426 1.7781905003 
1.7500594648 1.705225085 1.6857291059 1.6977430339 1.7009728666 1.6362944134 1.733747441 1.7349678371 1.7364007478 
1.7168361302 1.7182500834 1.679905205 1.7516441743 1.7741044196 1.8044002037 1.8081719173 1.8140003473 1.829343039 
1.803427641 1.7307049275 1.7253889601 1.7554155944 1.7569867476 1.6947275275 1.6354549747 1.5655684365 1.5454225273 
1.5884008424 1.586356617 1.5510187425 1.5464411871 1.5668319558 1.6067487213 1.6067012743 1.6027948045 1.5319847924 
1.7207570038 1.7221603305 1.7441174125 1.8708734312 1.8560897525 1.8579065648 1.8365232817 1.8501115422 1.9116205579 
1.9088817148 1.858739629 1.8674676332 1.874908876 1.9086466224 1.8972821045 1.8805618681 1.8618814488 1.8927848661 
1.9890742478 1.9941614636 2.0767712357 2.0374651103 2.0414967263 2.043045535 2.0690305609 2.0789728142 2.0972772948 
2.0981166327 2.0798268548 2.0669231077 2.1433821418 2.0863229787 2.0707462779 2.061353507 2.0885787598 2.1222351969 
2.1220523744 2.1056392754 2.0663139897 2.0757869244 2.0350649417 2.0676212948 2.0758396762 2.0747368733 2.0743419746 
1.920716035 1.9680000702 1.9698450843 1.9816152207 1.9830916532 1.9827198132 1.9603565794 1.9441163401 1.9089145448 
1.8674978892 1.8580107498 1.8637818807 1.8534541066 1.8404412085 1.8406721338 1.8500630941 1.8603361202 1.8639497674 
1.8599962899 1.8626302327 1.9354993423 1.9355732613 1.9539791074 1.9735470011 1.931908158 1.9319643897 1.9459660876 
1.9365879181 1.9484954184 1.9784691906 1.961082082 1.8777139881 1.8842093688 1.8776051787 1.8580692756 1.7069098613 
1.7068438372 1.6904038239 1.810060233 1.8371053364 1.8146943004 1.8146827471 1.8118059733 1.7477459183 1.7524794456 
1.7885724496 1.7870090257 1.8371126619 1.7763645912 1.7462800337 1.7364583365 1.7209758945 1.723214388 1.7585404431 
1.7995344742 1.954973076 2.0277484294 2.0449182765 2.0493047107 2.1623787789 2.2261936948 2.2263522438 2.2658309477 
2.3869861059 2.5028646908 2.55046227 2.4552442891 2.4521505402 2.3458704702 2.1917452365 2.1973373399 2.1681847208 
2.1683826725 2.1290800361 2.1199294678 2.223068499 2.2693644265 2.3251735386 2.5863562488 3.0059359954 3.3316647195 
3.3340198804 3.9204549602 3.9236045843 4.3141579651 4.7044742728 4.7603297627 4.9010311818 4.9031033553 5.419074571 
5.421915385 5.5966254453 5.9480201817 6.141373065 6.3456439741 6.3465355409 6.5685356729 6.6743887304 6.971802508 
8.2044882395 8.7994209955 9.3387423033 9.803463087 10.394271615 10.973995507 11.552882295 11.84331996 12.056574646 
12.357429853 12.724344328 12.726925251 13.313147352 14.545225859 14.602907393 14.648811473 14.662909671 14.746259063 
14.753594672 14.791243794 14.793398229 14.860896928 14.89868375 15.024091847 15.056025221 15.170022986 15.211544856 
15.288722245 15.317015221 15.453874571 15.498583613 15.53253665 15.698289302 15.69860029 15.776036243 15.78051756 
15.790940114 15.913324491 16.021851707 16.154446158 16.157220481 16.2659847 16.274343402 16.350308765 16.398010495 
16.414532102 16.416780454 16.4523016 16.472310171 16.642276273 16.656497161 16.672855001 16.686364416 16.695958798 
16.717927015 16.740207813 16.781868682 16.80928766 16.843052381 16.966824941 0.99813568104 0.99487191369 0.96559045517 
0.88660125169 0.93248682677 0.9426451663 0.93114002394 0.8826817742 0.81447120612 0.88178930701 0.86536866816 0.8306887073 
0.83077606172 0.8034589551 0.79381195322 0.94335847545 1.043404638 1.0641290311 1.0939166218 0.98085311813 0.98120462122 
1.0687288898 1.1003415981 1.1336209568 1.133645519 1.1366912263 1.0260818133 1.0397361768 0.99321235534 0.9673548575 
0.96719567225 0.9396884504 1.0157050059 1.0476167629 1.1974840244 1.2085837716 1.2326529585 1.5313626858 1.5893489368 
1.5891980069 1.6343436535 1.8440338716 1.8884561938 1.891536051 1.8799194326 1.8452878398 1.8461077135 1.8818512539 
1.8637189943 1.7781486595 1.7779808362 1.7571707522 1.714558141 1.8067528503 1.8138778861 1.8220457996 1.8130964567 
1.8045974739 1.8013246253 1.8036672017 1.8034391941 1.7968536588 1.8446856725 1.8557088727 1.8649157829 1.8822664776 
1.8346263357 1.8176812925 1.7589480197 1.7453654199 1.7065635027 1.7215120944 1.6980003247 1.6530518369 1.6481351566 
1.542749989 1.6415010307 1.6704600998 1.6724551716 1.731157521 1.7313915077 1.7896542109 1.7899468043 1.8628025538 
1.8679277766 1.9276628898 2.0256049253 2.0256160329 2.0283818301 2.037657583 2.0365532789 2.0921660248 2.0921668897 
2.0922381029 2.1500685703 2.1497406656 2.0742322357 2.024623378 2.0065319263 1.9815269062 1.9801959602 1.9910709783 
2.011457549 2.0168291459 2.0138550376 2.0268548635 2.1605523822 2.372711784 2.3977480856 2.4672579936 2.4821408396 
2.5317242607 2.591135997 2.5602790706 2.5486526572 2.4552442891 2.4521505402 2.3458704702 2.1917452365 2.1973373399 
2.1681847208 2.1683826725 2.1290800361 2.1199294678 2.223068499 2.2693644265 2.3251735386 2.5863562488 3.0059359954 
3.3316647195 3.3340198804 3.9204549602 3.9236045843 4.3141579651 4.7044742728 4.7603297627 4.9010311818 4.9031033553 
5.419074571 5.421915385 5.5966254453 5.9480201817 6.141373065 6.3456439741 6.3465355409 6.5685356729 6.6743887304 
6.971802508 8.2044882395 8.7994209955 9.3387423033 9.803463087 10.394271615 10.973995507 11.552882295 11.84331996 
12.056574646 12.357429853 12.724344328 12.726925251 13.313147352 14.545225859 14.602907393 14.648811473 14.662909671 
14.746259063 14.753594672 14.791243794 14.793398229 14.860896928 14.89868375 15.024091847 15.056025221 15.170022986 
15.211544856 15.288722245 15.317015221 15.453874571 15.498583613 15.53253665 15.698289302 15.69860029 15.776036243 
15.78051756 15.790940114 15.913324491 16.021851707 16.154446158 16.157220481 16.2659847 16.274343402 16.350308765 
16.398010495 16.414532102 16.416780454 16.4523016 16.472310171 16.642276273 16.656497161 16.672855001 16.686364416 
16.695958798 16.717927015 16.740207813 16.781868682 16.80928766 16.843052381 16.966824941 0.45278852869 0.45279009748 
0.45318072541 0.45391121764 0.63580378477 0.64004038979 0.70641386847 0.71344235296 1.0578380927 1.0730166761 0.84214312257 
0.83280023478 0.80610313439 0.88899942505 0.97942298296 0.91223511493 0.9145864464 1.0102072596 1.0112477897 1.0389116632 
1.1120359554 1.1025255183 1.0934685354 1.0965947543 1.0269052443 1.0739213473 1.1089245337 1.1103402979 1.1407061721 
1.2310552631 1.0701166755 1.1377174724 1.2210826338 1.2210803583 1.2205137698 1.0609106234 1.0784450694 1.0873335612 
1.0855001321 1.0368860277 1.0599274294 1.0891371114 1.1347202876 1.1656229378 1.2492110774 1.2856662013 1.2270599028 
1.2429548306 1.2791961917 1.2792947242 1.2667896249 1.1958912585 1.1959856191 1.2076863282 1.1436229854 1.1534042429 
1.1248070952 1.1994845257 1.1991697895 1.2954571672 1.3188929503 1.3794584049 1.2501447317 1.2240837217 1.1689513612 
1.1592628171 1.145626244 1.1235466258 1.1235307603 1.1215634386 0.9037806094 0.90203606644 0.81228424045 0.89305629811 
0.91642654922 1.0398732672 1.2788661176 1.493982131 1.527286608 1.5868510674 1.678348948 1.7699251826 1.7742056258 
1.761002094 1.8098931849 1.7911953375 1.7570839598 1.7444216919 1.650139979 1.7134562788 1.7388483018 1.740382275 
1.7340525719 1.7153018748 1.6543011448 1.6012493752 1.6069040391 1.6405047617 1.6404952163 1.6381184132 1.5482841278 
1.5547344892 1.5263180656 1.5103079067 1.5013738798 1.5858891361 1.5818032824 1.5540748631 1.5810149989 1.5894294096 
1.7465499314 1.8070038214 1.8487063928 1.8833918175 1.8896287533 1.8799194326 1.8452878398 1.8461077135 1.8818512539 
1.8637189943 1.7781486595 1.7779808362 1.7571707522 1.714558141 1.8067528503 1.8138778861 1.8220457996 1.8130964567 
1.8045974739 1.8013246253 1.8036672017 1.8034391941 1.7968536588 1.8446856725 1.8557088727 1.8649157829 1.8822664776 